ITEM: TIMESTEP
0
ITEM: NUMBER OF ATOMS
29140
ITEM: BOX BOUNDS pp pp ff
-1.1364999999999954e+00 1.2743650000000024e+02
-1.5584834192955865e+00 2.2068252341929579e+02
-3.0000000000000000e+01 1.3228800000000001e+02
ITEM: ATOMS id type xs ys zs
162 2 0.0109976 0.0188485 0.194346
421 2 0.0234093 0.00641457 0.194346
661 2 0.0358209 0.0188485 0.194346
41 1 0.0109976 0.0105577 0.203835
301 1 0.0234093 0.0229916 0.203835
541 1 0.0358209 0.0105577 0.203835
221 2 0.0109976 0.0188485 0.213324
461 2 0.0234093 0.00641457 0.213324
701 2 0.0358209 0.0188485 0.213324
901 2 0.0482325 0.00641457 0.194346
1141 2 0.0606441 0.0188485 0.194346
1381 2 0.0730558 0.00641457 0.194346
1621 2 0.0854674 0.0188485 0.194346
781 1 0.0482325 0.0229916 0.203835
1021 1 0.0606441 0.0105577 0.203835
1261 1 0.0730558 0.0229916 0.203835
1501 1 0.0854674 0.0105577 0.203835
941 2 0.0482325 0.00641457 0.213324
1181 2 0.0606441 0.0188485 0.213324
1421 2 0.0730558 0.00641457 0.213324
1661 2 0.0854674 0.0188485 0.213324
1861 2 0.097879 0.00641457 0.194346
2101 2 0.110291 0.0188485 0.194346
2341 2 0.122702 0.00641457 0.194346
2581 2 0.135114 0.0188485 0.194346
1741 1 0.097879 0.0229916 0.203835
1981 1 0.110291 0.0105577 0.203835
2221 1 0.122702 0.0229916 0.203835
2461 1 0.135114 0.0105577 0.203835
1901 2 0.097879 0.00641457 0.213324
2141 2 0.110291 0.0188485 0.213324
2381 2 0.122702 0.00641457 0.213324
2621 2 0.135114 0.0188485 0.213324
2821 2 0.147526 0.00641457 0.194346
3061 2 0.159937 0.0188485 0.194346
3301 2 0.172349 0.00641457 0.194346
3541 2 0.18476 0.0188485 0.194346
2701 1 0.147526 0.0229916 0.203835
2941 1 0.159937 0.0105577 0.203835
3181 1 0.172349 0.0229916 0.203835
3421 1 0.18476 0.0105577 0.203835
2861 2 0.147526 0.00641457 0.213324
3101 2 0.159937 0.0188485 0.213324
3341 2 0.172349 0.00641457 0.213324
3581 2 0.18476 0.0188485 0.213324
3781 2 0.197172 0.00641457 0.194346
4021 2 0.209584 0.0188485 0.194346
4261 2 0.221995 0.00641457 0.194346
4501 2 0.234407 0.0188485 0.194346
3661 1 0.197172 0.0229916 0.203835
3901 1 0.209584 0.0105577 0.203835
4141 1 0.221995 0.0229916 0.203835
4381 1 0.234407 0.0105577 0.203835
3821 2 0.197172 0.00641457 0.213324
4061 2 0.209584 0.0188485 0.213324
4301 2 0.221995 0.00641457 0.213324
4541 2 0.234407 0.0188485 0.213324
4741 2 0.246819 0.00641457 0.194346
4981 2 0.25923 0.0188485 0.194346
5221 2 0.271642 0.00641457 0.194346
5461 2 0.284053 0.0188485 0.194346
4621 1 0.246819 0.0229916 0.203835
4861 1 0.25923 0.0105577 0.203835
5101 1 0.271642 0.0229916 0.203835
5341 1 0.284053 0.0105577 0.203835
4781 2 0.246819 0.00641457 0.213324
5021 2 0.25923 0.0188485 0.213324
5261 2 0.271642 0.00641457 0.213324
5501 2 0.284053 0.0188485 0.213324
5701 2 0.296465 0.00641457 0.194346
5941 2 0.308877 0.0188485 0.194346
6181 2 0.321288 0.00641457 0.194346
5581 1 0.296465 0.0229916 0.203835
5821 1 0.308877 0.0105577 0.203835
6061 1 0.321288 0.0229916 0.203835
5741 2 0.296465 0.00641457 0.213324
5981 2 0.308877 0.0188485 0.213324
6221 2 0.321288 0.00641457 0.213324
6421 2 0.3337 0.0188485 0.194346
6661 2 0.346112 0.00641457 0.194346
6901 2 0.358523 0.0188485 0.194346
7141 2 0.370935 0.00641457 0.194346
6301 1 0.3337 0.0105577 0.203835
6541 1 0.346112 0.0229916 0.203835
6781 1 0.358523 0.0105577 0.203835
7021 1 0.370935 0.0229916 0.203835
6461 2 0.3337 0.0188485 0.213324
6701 2 0.346112 0.00641457 0.213324
6941 2 0.358523 0.0188485 0.213324
7181 2 0.370935 0.00641457 0.213324
7381 2 0.383346 0.0188485 0.194346
7621 2 0.395758 0.00641457 0.194346
7861 2 0.40817 0.0188485 0.194346
8101 2 0.420581 0.00641457 0.194346
7261 1 0.383346 0.0105577 0.203835
7501 1 0.395758 0.0229916 0.203835
7741 1 0.40817 0.0105577 0.203835
7981 1 0.420581 0.0229916 0.203835
7421 2 0.383346 0.0188485 0.213324
7661 2 0.395758 0.00641457 0.213324
7901 2 0.40817 0.0188485 0.213324
8141 2 0.420581 0.00641457 0.213324
8341 2 0.432993 0.0188485 0.194346
8581 2 0.445405 0.00641457 0.194346
8821 2 0.457816 0.0188485 0.194346
9061 2 0.470228 0.00641457 0.194346
8221 1 0.432993 0.0105577 0.203835
8461 1 0.445405 0.0229916 0.203835
8701 1 0.457816 0.0105577 0.203835
8941 1 0.470228 0.0229916 0.203835
8381 2 0.432993 0.0188485 0.213324
8621 2 0.445405 0.00641457 0.213324
8861 2 0.457816 0.0188485 0.213324
9101 2 0.470228 0.00641457 0.213324
9301 2 0.482639 0.0188485 0.194346
9541 2 0.495051 0.00641457 0.194346
9782 2 0.507463 0.0188485 0.194346
10001 2 0.519874 0.00641457 0.194346
9181 1 0.482639 0.0105577 0.203835
9421 1 0.495051 0.0229916 0.203835
9661 1 0.507463 0.0105577 0.203835
9881 1 0.519874 0.0229916 0.203835
9341 2 0.482639 0.0188485 0.213324
9581 2 0.495051 0.00641457 0.213324
9802 2 0.507463 0.0188485 0.213324
10041 2 0.519874 0.00641457 0.213324
10241 2 0.532286 0.0188485 0.194346
10481 2 0.544698 0.00641457 0.194346
10721 2 0.557109 0.0188485 0.194346
10961 2 0.569521 0.00641457 0.194346
10121 1 0.532286 0.0105577 0.203835
10361 1 0.544698 0.0229916 0.203835
10601 1 0.557109 0.0105577 0.203835
10841 1 0.569521 0.0229916 0.203835
10281 2 0.532286 0.0188485 0.213324
10521 2 0.544698 0.00641457 0.213324
10761 2 0.557109 0.0188485 0.213324
11001 2 0.569521 0.00641457 0.213324
11201 2 0.581932 0.0188485 0.194346
11441 2 0.594344 0.00641457 0.194346
11681 2 0.606756 0.0188485 0.194346
11081 1 0.581932 0.0105577 0.203835
11321 1 0.594344 0.0229916 0.203835
11561 1 0.606756 0.0105577 0.203835
11241 2 0.581932 0.0188485 0.213324
11481 2 0.594344 0.00641457 0.213324
11721 2 0.606756 0.0188485 0.213324
11921 2 0.619167 0.00641457 0.194346
12161 2 0.631579 0.0188485 0.194346
12401 2 0.643991 0.00641457 0.194346
12641 2 0.656402 0.0188485 0.194346
11801 1 0.619167 0.0229916 0.203835
12041 1 0.631579 0.0105577 0.203835
12281 1 0.643991 0.0229916 0.203835
12521 1 0.656402 0.0105577 0.203835
11961 2 0.619167 0.00641457 0.213324
12201 2 0.631579 0.0188485 0.213324
12441 2 0.643991 0.00641457 0.213324
12681 2 0.656402 0.0188485 0.213324
12881 2 0.668814 0.00641457 0.194346
13121 2 0.681225 0.0188485 0.194346
13361 2 0.693637 0.00641457 0.194346
13601 2 0.706049 0.0188485 0.194346
12761 1 0.668814 0.0229916 0.203835
13001 1 0.681225 0.0105577 0.203835
13241 1 0.693637 0.0229916 0.203835
13481 1 0.706049 0.0105577 0.203835
12921 2 0.668814 0.00641457 0.213324
13161 2 0.681225 0.0188485 0.213324
13401 2 0.693637 0.00641457 0.213324
13641 2 0.706049 0.0188485 0.213324
13841 2 0.71846 0.00641457 0.194346
14081 2 0.730872 0.0188485 0.194346
14321 2 0.743284 0.00641457 0.194346
14561 2 0.755695 0.0188485 0.194346
13721 1 0.71846 0.0229916 0.203835
13961 1 0.730872 0.0105577 0.203835
14201 1 0.743284 0.0229916 0.203835
14441 1 0.755695 0.0105577 0.203835
13881 2 0.71846 0.00641457 0.213324
14121 2 0.730872 0.0188485 0.213324
14361 2 0.743284 0.00641457 0.213324
14601 2 0.755695 0.0188485 0.213324
14801 2 0.768107 0.00641457 0.194346
15041 2 0.780518 0.0188485 0.194346
15281 2 0.79293 0.00641457 0.194346
15521 2 0.805342 0.0188485 0.194346
14681 1 0.768107 0.0229916 0.203835
14921 1 0.780518 0.0105577 0.203835
15161 1 0.79293 0.0229916 0.203835
15401 1 0.805342 0.0105577 0.203835
14841 2 0.768107 0.00641457 0.213324
15081 2 0.780518 0.0188485 0.213324
15321 2 0.79293 0.00641457 0.213324
15561 2 0.805342 0.0188485 0.213324
15761 2 0.817753 0.00641457 0.194346
16001 2 0.830165 0.0188485 0.194346
16241 2 0.842577 0.00641457 0.194346
16481 2 0.854988 0.0188485 0.194346
15641 1 0.817753 0.0229916 0.203835
15881 1 0.830165 0.0105577 0.203835
16121 1 0.842577 0.0229916 0.203835
16361 1 0.854988 0.0105577 0.203835
15801 2 0.817753 0.00641457 0.213324
16041 2 0.830165 0.0188485 0.213324
16281 2 0.842577 0.00641457 0.213324
16521 2 0.854988 0.0188485 0.213324
16721 2 0.8674 0.00641457 0.194346
16961 2 0.879811 0.0188485 0.194346
17201 2 0.892223 0.00641457 0.194346
17441 2 0.904635 0.0188485 0.194346
16601 1 0.8674 0.0229916 0.203835
16841 1 0.879811 0.0105577 0.203835
17081 1 0.892223 0.0229916 0.203835
17321 1 0.904635 0.0105577 0.203835
16761 2 0.8674 0.00641457 0.213324
17001 2 0.879811 0.0188485 0.213324
17241 2 0.892223 0.00641457 0.213324
17481 2 0.904635 0.0188485 0.213324
17681 2 0.917046 0.00641457 0.194346
17921 2 0.929458 0.0188485 0.194346
18161 2 0.94187 0.00641457 0.194346
17561 1 0.917046 0.0229916 0.203835
17801 1 0.929458 0.0105577 0.203835
18041 1 0.94187 0.0229916 0.203835
17721 2 0.917046 0.00641457 0.213324
17961 2 0.929458 0.0188485 0.213324
18201 2 0.94187 0.00641457 0.213324
18401 2 0.954281 0.0188485 0.194346
18641 2 0.966693 0.00641457 0.194346
18881 2 0.979104 0.0188485 0.194346
19121 2 0.991516 0.00641457 0.194346
18281 1 0.954281 0.0105577 0.203835
18521 1 0.966693 0.0229916 0.203835
18761 1 0.979104 0.0105577 0.203835
19001 1 0.991516 0.0229916 0.203835
18441 2 0.954281 0.0188485 0.213324
18681 2 0.966693 0.00641457 0.213324
18921 2 0.979104 0.0188485 0.213324
19161 2 0.991516 0.00641457 0.213324
163 2 0.0109976 0.0437117 0.194346
422 2 0.0234093 0.0312824 0.194346
423 2 0.0234093 0.0561456 0.194346
662 2 0.0358209 0.0437117 0.194346
42 1 0.0109976 0.0354255 0.203835
43 1 0.0109976 0.0602887 0.203835
302 1 0.0234093 0.0478548 0.203835
542 1 0.0358209 0.0354255 0.203835
543 1 0.0358209 0.0602887 0.203835
222 2 0.0109976 0.0437117 0.213324
462 2 0.0234093 0.0312824 0.213324
463 2 0.0234093 0.0561456 0.213324
702 2 0.0358209 0.0437117 0.213324
902 2 0.0482325 0.0312824 0.194346
903 2 0.0482325 0.0561456 0.194346
1142 2 0.0606441 0.0437117 0.194346
1382 2 0.0730558 0.0312824 0.194346
1383 2 0.0730558 0.0561456 0.194346
1622 2 0.0854674 0.0437117 0.194346
782 1 0.0482325 0.0478548 0.203835
1022 1 0.0606441 0.0354255 0.203835
1023 1 0.0606441 0.0602887 0.203835
1262 1 0.0730558 0.0478548 0.203835
1502 1 0.0854674 0.0354255 0.203835
1503 1 0.0854674 0.0602887 0.203835
942 2 0.0482325 0.0312824 0.213324
943 2 0.0482325 0.0561456 0.213324
1182 2 0.0606441 0.0437117 0.213324
1422 2 0.0730558 0.0312824 0.213324
1423 2 0.0730558 0.0561456 0.213324
1662 2 0.0854674 0.0437117 0.213324
1862 2 0.097879 0.0312824 0.194346
1863 2 0.097879 0.0561456 0.194346
2102 2 0.110291 0.0437117 0.194346
2342 2 0.122702 0.0312824 0.194346
2343 2 0.122702 0.0561456 0.194346
2582 2 0.135114 0.0437117 0.194346
1742 1 0.097879 0.0478548 0.203835
1982 1 0.110291 0.0354255 0.203835
1983 1 0.110291 0.0602887 0.203835
2222 1 0.122702 0.0478548 0.203835
2462 1 0.135114 0.0354255 0.203835
2463 1 0.135114 0.0602887 0.203835
1902 2 0.097879 0.0312824 0.213324
1903 2 0.097879 0.0561456 0.213324
2142 2 0.110291 0.0437117 0.213324
2382 2 0.122702 0.0312824 0.213324
2383 2 0.122702 0.0561456 0.213324
2622 2 0.135114 0.0437117 0.213324
2822 2 0.147526 0.0312824 0.194346
2823 2 0.147526 0.0561456 0.194346
3062 2 0.159937 0.0437117 0.194346
3302 2 0.172349 0.0312824 0.194346
3303 2 0.172349 0.0561456 0.194346
3542 2 0.18476 0.0437117 0.194346
2702 1 0.147526 0.0478548 0.203835
2942 1 0.159937 0.0354255 0.203835
2943 1 0.159937 0.0602887 0.203835
3182 1 0.172349 0.0478548 0.203835
3422 1 0.18476 0.0354255 0.203835
3423 1 0.18476 0.0602887 0.203835
2862 2 0.147526 0.0312824 0.213324
2863 2 0.147526 0.0561456 0.213324
3102 2 0.159937 0.0437117 0.213324
3342 2 0.172349 0.0312824 0.213324
3343 2 0.172349 0.0561456 0.213324
3582 2 0.18476 0.0437117 0.213324
3782 2 0.197172 0.0312824 0.194346
3783 2 0.197172 0.0561456 0.194346
4022 2 0.209584 0.0437117 0.194346
4262 2 0.221995 0.0312824 0.194346
4263 2 0.221995 0.0561456 0.194346
4502 2 0.234407 0.0437117 0.194346
3662 1 0.197172 0.0478548 0.203835
3902 1 0.209584 0.0354255 0.203835
3903 1 0.209584 0.0602887 0.203835
4142 1 0.221995 0.0478548 0.203835
4382 1 0.234407 0.0354255 0.203835
4383 1 0.234407 0.0602887 0.203835
3822 2 0.197172 0.0312824 0.213324
3823 2 0.197172 0.0561456 0.213324
4062 2 0.209584 0.0437117 0.213324
4302 2 0.221995 0.0312824 0.213324
4303 2 0.221995 0.0561456 0.213324
4542 2 0.234407 0.0437117 0.213324
4742 2 0.246819 0.0312824 0.194346
4743 2 0.246819 0.0561456 0.194346
4982 2 0.25923 0.0437117 0.194346
5222 2 0.271642 0.0312824 0.194346
5223 2 0.271642 0.0561456 0.194346
5462 2 0.284053 0.0437117 0.194346
4622 1 0.246819 0.0478548 0.203835
4862 1 0.25923 0.0354255 0.203835
4863 1 0.25923 0.0602887 0.203835
5102 1 0.271642 0.0478548 0.203835
5342 1 0.284053 0.0354255 0.203835
5343 1 0.284053 0.0602887 0.203835
4782 2 0.246819 0.0312824 0.213324
4783 2 0.246819 0.0561456 0.213324
5022 2 0.25923 0.0437117 0.213324
5262 2 0.271642 0.0312824 0.213324
5263 2 0.271642 0.0561456 0.213324
5502 2 0.284053 0.0437117 0.213324
5702 2 0.296465 0.0312824 0.194346
5703 2 0.296465 0.0561456 0.194346
5942 2 0.308877 0.0437117 0.194346
6182 2 0.321288 0.0312824 0.194346
6183 2 0.321288 0.0561456 0.194346
5582 1 0.296465 0.0478548 0.203835
5822 1 0.308877 0.0354255 0.203835
5823 1 0.308877 0.0602887 0.203835
6062 1 0.321288 0.0478548 0.203835
5742 2 0.296465 0.0312824 0.213324
5743 2 0.296465 0.0561456 0.213324
5982 2 0.308877 0.0437117 0.213324
6222 2 0.321288 0.0312824 0.213324
6223 2 0.321288 0.0561456 0.213324
6422 2 0.3337 0.0437117 0.194346
6662 2 0.346112 0.0312824 0.194346
6663 2 0.346112 0.0561456 0.194346
6902 2 0.358523 0.0437117 0.194346
7142 2 0.370935 0.0312824 0.194346
7143 2 0.370935 0.0561456 0.194346
6302 1 0.3337 0.0354255 0.203835
6303 1 0.3337 0.0602887 0.203835
6542 1 0.346112 0.0478548 0.203835
6782 1 0.358523 0.0354255 0.203835
6783 1 0.358523 0.0602887 0.203835
7022 1 0.370935 0.0478548 0.203835
6462 2 0.3337 0.0437117 0.213324
6702 2 0.346112 0.0312824 0.213324
6703 2 0.346112 0.0561456 0.213324
6942 2 0.358523 0.0437117 0.213324
7182 2 0.370935 0.0312824 0.213324
7183 2 0.370935 0.0561456 0.213324
7382 2 0.383346 0.0437117 0.194346
7622 2 0.395758 0.0312824 0.194346
7623 2 0.395758 0.0561456 0.194346
7862 2 0.40817 0.0437117 0.194346
8102 2 0.420581 0.0312824 0.194346
8103 2 0.420581 0.0561456 0.194346
7262 1 0.383346 0.0354255 0.203835
7263 1 0.383346 0.0602887 0.203835
7502 1 0.395758 0.0478548 0.203835
7742 1 0.40817 0.0354255 0.203835
7743 1 0.40817 0.0602887 0.203835
7982 1 0.420581 0.0478548 0.203835
7422 2 0.383346 0.0437117 0.213324
7662 2 0.395758 0.0312824 0.213324
7663 2 0.395758 0.0561456 0.213324
7902 2 0.40817 0.0437117 0.213324
8142 2 0.420581 0.0312824 0.213324
8143 2 0.420581 0.0561456 0.213324
8342 2 0.432993 0.0437117 0.194346
8582 2 0.445405 0.0312824 0.194346
8583 2 0.445405 0.0561456 0.194346
8822 2 0.457816 0.0437117 0.194346
9062 2 0.470228 0.0312824 0.194346
9063 2 0.470228 0.0561456 0.194346
8222 1 0.432993 0.0354255 0.203835
8223 1 0.432993 0.0602887 0.203835
8462 1 0.445405 0.0478548 0.203835
8702 1 0.457816 0.0354255 0.203835
8703 1 0.457816 0.0602887 0.203835
8942 1 0.470228 0.0478548 0.203835
8382 2 0.432993 0.0437117 0.213324
8622 2 0.445405 0.0312824 0.213324
8623 2 0.445405 0.0561456 0.213324
8862 2 0.457816 0.0437117 0.213324
9102 2 0.470228 0.0312824 0.213324
9103 2 0.470228 0.0561456 0.213324
9302 2 0.482639 0.0437117 0.194346
9542 2 0.495051 0.0312824 0.194346
9543 2 0.495051 0.0561456 0.194346
9783 2 0.507463 0.0437117 0.194346
10002 2 0.519874 0.0312778 0.194346
10003 2 0.519874 0.0561456 0.194346
9182 1 0.482639 0.0354255 0.203835
9183 1 0.482639 0.0602887 0.203835
9422 1 0.495051 0.0478548 0.203835
9662 1 0.507463 0.0354255 0.203835
9663 1 0.507463 0.0602887 0.203835
9882 1 0.519874 0.0478548 0.203835
9342 2 0.482639 0.0437117 0.213324
9582 2 0.495051 0.0312824 0.213324
9583 2 0.495051 0.0561456 0.213324
9803 2 0.507463 0.0437117 0.213324
10042 2 0.519874 0.0312778 0.213324
10043 2 0.519874 0.0561456 0.213324
10242 2 0.532286 0.0437117 0.194346
10482 2 0.544698 0.0312778 0.194346
10483 2 0.544698 0.0561456 0.194346
10722 2 0.557109 0.0437117 0.194346
10962 2 0.569521 0.0312778 0.194346
10963 2 0.569521 0.0561456 0.194346
10122 1 0.532286 0.0354255 0.203835
10123 1 0.532286 0.0602887 0.203835
10362 1 0.544698 0.0478548 0.203835
10602 1 0.557109 0.0354255 0.203835
10603 1 0.557109 0.0602887 0.203835
10842 1 0.569521 0.0478548 0.203835
10282 2 0.532286 0.0437117 0.213324
10522 2 0.544698 0.0312778 0.213324
10523 2 0.544698 0.0561456 0.213324
10762 2 0.557109 0.0437117 0.213324
11002 2 0.569521 0.0312778 0.213324
11003 2 0.569521 0.0561456 0.213324
11202 2 0.581932 0.0437117 0.194346
11442 2 0.594344 0.0312778 0.194346
11443 2 0.594344 0.0561456 0.194346
11682 2 0.606756 0.0437117 0.194346
11082 1 0.581932 0.0354255 0.203835
11083 1 0.581932 0.0602887 0.203835
11322 1 0.594344 0.0478548 0.203835
11562 1 0.606756 0.0354255 0.203835
11563 1 0.606756 0.0602887 0.203835
11242 2 0.581932 0.0437117 0.213324
11482 2 0.594344 0.0312778 0.213324
11483 2 0.594344 0.0561456 0.213324
11722 2 0.606756 0.0437117 0.213324
11922 2 0.619167 0.0312778 0.194346
11923 2 0.619167 0.0561456 0.194346
12162 2 0.631579 0.0437117 0.194346
12402 2 0.643991 0.0312778 0.194346
12403 2 0.643991 0.0561456 0.194346
12642 2 0.656402 0.0437117 0.194346
11802 1 0.619167 0.0478548 0.203835
12042 1 0.631579 0.0354255 0.203835
12043 1 0.631579 0.0602887 0.203835
12282 1 0.643991 0.0478548 0.203835
12522 1 0.656402 0.0354255 0.203835
12523 1 0.656402 0.0602887 0.203835
11962 2 0.619167 0.0312778 0.213324
11963 2 0.619167 0.0561456 0.213324
12202 2 0.631579 0.0437117 0.213324
12442 2 0.643991 0.0312778 0.213324
12443 2 0.643991 0.0561456 0.213324
12682 2 0.656402 0.0437117 0.213324
12882 2 0.668814 0.0312778 0.194346
12883 2 0.668814 0.0561456 0.194346
13122 2 0.681225 0.0437117 0.194346
13362 2 0.693637 0.0312778 0.194346
13363 2 0.693637 0.0561456 0.194346
13602 2 0.706049 0.0437117 0.194346
12762 1 0.668814 0.0478548 0.203835
13002 1 0.681225 0.0354255 0.203835
13003 1 0.681225 0.0602887 0.203835
13242 1 0.693637 0.0478548 0.203835
13482 1 0.706049 0.0354255 0.203835
13483 1 0.706049 0.0602887 0.203835
12922 2 0.668814 0.0312778 0.213324
12923 2 0.668814 0.0561456 0.213324
13162 2 0.681225 0.0437117 0.213324
13402 2 0.693637 0.0312778 0.213324
13403 2 0.693637 0.0561456 0.213324
13642 2 0.706049 0.0437117 0.213324
13842 2 0.71846 0.0312778 0.194346
13843 2 0.71846 0.0561456 0.194346
14082 2 0.730872 0.0437117 0.194346
14322 2 0.743284 0.0312778 0.194346
14323 2 0.743284 0.0561456 0.194346
14562 2 0.755695 0.0437117 0.194346
13722 1 0.71846 0.0478548 0.203835
13962 1 0.730872 0.0354255 0.203835
13963 1 0.730872 0.0602887 0.203835
14202 1 0.743284 0.0478548 0.203835
14442 1 0.755695 0.0354255 0.203835
14443 1 0.755695 0.0602887 0.203835
13882 2 0.71846 0.0312778 0.213324
13883 2 0.71846 0.0561456 0.213324
14122 2 0.730872 0.0437117 0.213324
14362 2 0.743284 0.0312778 0.213324
14363 2 0.743284 0.0561456 0.213324
14602 2 0.755695 0.0437117 0.213324
14802 2 0.768107 0.0312778 0.194346
14803 2 0.768107 0.0561456 0.194346
15042 2 0.780518 0.0437117 0.194346
15282 2 0.79293 0.0312778 0.194346
15283 2 0.79293 0.0561456 0.194346
15522 2 0.805342 0.0437117 0.194346
14682 1 0.768107 0.0478548 0.203835
14922 1 0.780518 0.0354255 0.203835
14923 1 0.780518 0.0602887 0.203835
15162 1 0.79293 0.0478548 0.203835
15402 1 0.805342 0.0354255 0.203835
15403 1 0.805342 0.0602887 0.203835
14842 2 0.768107 0.0312778 0.213324
14843 2 0.768107 0.0561456 0.213324
15082 2 0.780518 0.0437117 0.213324
15322 2 0.79293 0.0312778 0.213324
15323 2 0.79293 0.0561456 0.213324
15562 2 0.805342 0.0437117 0.213324
15762 2 0.817753 0.0312778 0.194346
15763 2 0.817753 0.0561456 0.194346
16002 2 0.830165 0.0437117 0.194346
16242 2 0.842577 0.0312778 0.194346
16243 2 0.842577 0.0561456 0.194346
16482 2 0.854988 0.0437117 0.194346
15642 1 0.817753 0.0478548 0.203835
15882 1 0.830165 0.0354255 0.203835
15883 1 0.830165 0.0602887 0.203835
16122 1 0.842577 0.0478548 0.203835
16362 1 0.854988 0.0354255 0.203835
16363 1 0.854988 0.0602887 0.203835
15802 2 0.817753 0.0312778 0.213324
15803 2 0.817753 0.0561456 0.213324
16042 2 0.830165 0.0437117 0.213324
16282 2 0.842577 0.0312778 0.213324
16283 2 0.842577 0.0561456 0.213324
16522 2 0.854988 0.0437117 0.213324
16722 2 0.8674 0.0312778 0.194346
16723 2 0.8674 0.0561456 0.194346
16962 2 0.879811 0.0437117 0.194346
17202 2 0.892223 0.0312778 0.194346
17203 2 0.892223 0.0561456 0.194346
17442 2 0.904635 0.0437117 0.194346
16602 1 0.8674 0.0478548 0.203835
16842 1 0.879811 0.0354255 0.203835
16843 1 0.879811 0.0602887 0.203835
17082 1 0.892223 0.0478548 0.203835
17322 1 0.904635 0.0354255 0.203835
17323 1 0.904635 0.0602887 0.203835
16762 2 0.8674 0.0312778 0.213324
16763 2 0.8674 0.0561456 0.213324
17002 2 0.879811 0.0437117 0.213324
17242 2 0.892223 0.0312778 0.213324
17243 2 0.892223 0.0561456 0.213324
17482 2 0.904635 0.0437117 0.213324
17682 2 0.917046 0.0312778 0.194346
17683 2 0.917046 0.0561456 0.194346
17922 2 0.929458 0.0437117 0.194346
18162 2 0.94187 0.0312778 0.194346
18163 2 0.94187 0.0561456 0.194346
17562 1 0.917046 0.0478548 0.203835
17802 1 0.929458 0.0354255 0.203835
17803 1 0.929458 0.0602887 0.203835
18042 1 0.94187 0.0478548 0.203835
17722 2 0.917046 0.0312778 0.213324
17723 2 0.917046 0.0561456 0.213324
17962 2 0.929458 0.0437117 0.213324
18202 2 0.94187 0.0312778 0.213324
18203 2 0.94187 0.0561456 0.213324
18402 2 0.954281 0.0437117 0.194346
18642 2 0.966693 0.0312778 0.194346
18643 2 0.966693 0.0561456 0.194346
18882 2 0.979104 0.0437117 0.194346
19122 2 0.991516 0.0312778 0.194346
19123 2 0.991516 0.0561456 0.194346
18282 1 0.954281 0.0354255 0.203835
18283 1 0.954281 0.0602887 0.203835
18522 1 0.966693 0.0478548 0.203835
18762 1 0.979104 0.0354255 0.203835
18763 1 0.979104 0.0602887 0.203835
19002 1 0.991516 0.0478548 0.203835
18442 2 0.954281 0.0437117 0.213324
18682 2 0.966693 0.0312778 0.213324
18683 2 0.966693 0.0561456 0.213324
18922 2 0.979104 0.0437117 0.213324
19162 2 0.991516 0.0312778 0.213324
19163 2 0.991516 0.0561456 0.213324
164 2 0.0109976 0.068575 0.194346
165 2 0.0109976 0.0934428 0.194346
424 2 0.0234093 0.0810089 0.194346
663 2 0.0358209 0.068575 0.194346
664 2 0.0358209 0.0934428 0.194346
44 1 0.0109976 0.085152 0.203835
303 1 0.0234093 0.0727226 0.203835
544 1 0.0358209 0.085152 0.203835
223 2 0.0109976 0.068575 0.213324
224 2 0.0109976 0.0934428 0.213324
464 2 0.0234093 0.0810089 0.213324
703 2 0.0358209 0.068575 0.213324
704 2 0.0358209 0.0934428 0.213324
904 2 0.0482325 0.0810089 0.194346
1143 2 0.0606441 0.068575 0.194346
1144 2 0.0606441 0.0934428 0.194346
1384 2 0.0730558 0.0810089 0.194346
1623 2 0.0854674 0.068575 0.194346
1624 2 0.0854674 0.0934428 0.194346
783 1 0.0482325 0.0727226 0.203835
1024 1 0.0606441 0.085152 0.203835
1263 1 0.0730558 0.0727226 0.203835
1504 1 0.0854674 0.085152 0.203835
944 2 0.0482325 0.0810089 0.213324
1183 2 0.0606441 0.068575 0.213324
1184 2 0.0606441 0.0934428 0.213324
1424 2 0.0730558 0.0810089 0.213324
1663 2 0.0854674 0.068575 0.213324
1664 2 0.0854674 0.0934428 0.213324
1864 2 0.097879 0.0810089 0.194346
2103 2 0.110291 0.068575 0.194346
2104 2 0.110291 0.0934428 0.194346
2344 2 0.122702 0.0810089 0.194346
2583 2 0.135114 0.068575 0.194346
2584 2 0.135114 0.0934428 0.194346
1743 1 0.097879 0.0727226 0.203835
1984 1 0.110291 0.085152 0.203835
2223 1 0.122702 0.0727226 0.203835
2464 1 0.135114 0.085152 0.203835
1904 2 0.097879 0.0810089 0.213324
2143 2 0.110291 0.068575 0.213324
2144 2 0.110291 0.0934428 0.213324
2384 2 0.122702 0.0810089 0.213324
2623 2 0.135114 0.068575 0.213324
2624 2 0.135114 0.0934428 0.213324
2824 2 0.147526 0.0810089 0.194346
3063 2 0.159937 0.068575 0.194346
3064 2 0.159937 0.0934428 0.194346
3304 2 0.172349 0.0810089 0.194346
3543 2 0.18476 0.068575 0.194346
3544 2 0.18476 0.0934428 0.194346
2703 1 0.147526 0.0727226 0.203835
2944 1 0.159937 0.085152 0.203835
3183 1 0.172349 0.0727226 0.203835
3424 1 0.18476 0.085152 0.203835
2864 2 0.147526 0.0810089 0.213324
3103 2 0.159937 0.068575 0.213324
3104 2 0.159937 0.0934428 0.213324
3344 2 0.172349 0.0810089 0.213324
3583 2 0.18476 0.068575 0.213324
3584 2 0.18476 0.0934428 0.213324
3784 2 0.197172 0.0810089 0.194346
4023 2 0.209584 0.068575 0.194346
4024 2 0.209584 0.0934428 0.194346
4264 2 0.221995 0.0810089 0.194346
4503 2 0.234407 0.068575 0.194346
4504 2 0.234407 0.0934428 0.194346
3663 1 0.197172 0.0727226 0.203835
3904 1 0.209584 0.085152 0.203835
4143 1 0.221995 0.0727226 0.203835
4384 1 0.234407 0.085152 0.203835
3824 2 0.197172 0.0810089 0.213324
4063 2 0.209584 0.068575 0.213324
4064 2 0.209584 0.0934428 0.213324
4304 2 0.221995 0.0810089 0.213324
4543 2 0.234407 0.068575 0.213324
4544 2 0.234407 0.0934428 0.213324
4744 2 0.246819 0.0810089 0.194346
4983 2 0.25923 0.068575 0.194346
4984 2 0.25923 0.0934428 0.194346
5224 2 0.271642 0.0810089 0.194346
5463 2 0.284053 0.068575 0.194346
5464 2 0.284053 0.0934428 0.194346
4623 1 0.246819 0.0727226 0.203835
4864 1 0.25923 0.085152 0.203835
5103 1 0.271642 0.0727226 0.203835
5344 1 0.284053 0.085152 0.203835
4784 2 0.246819 0.0810089 0.213324
5023 2 0.25923 0.068575 0.213324
5024 2 0.25923 0.0934428 0.213324
5264 2 0.271642 0.0810089 0.213324
5503 2 0.284053 0.068575 0.213324
5504 2 0.284053 0.0934428 0.213324
5704 2 0.296465 0.0810089 0.194346
5943 2 0.308877 0.068575 0.194346
5944 2 0.308877 0.0934428 0.194346
6184 2 0.321288 0.0810089 0.194346
5583 1 0.296465 0.0727226 0.203835
5824 1 0.308877 0.085152 0.203835
6063 1 0.321288 0.0727226 0.203835
5744 2 0.296465 0.0810089 0.213324
5983 2 0.308877 0.068575 0.213324
5984 2 0.308877 0.0934428 0.213324
6224 2 0.321288 0.0810089 0.213324
6423 2 0.3337 0.068575 0.194346
6424 2 0.3337 0.0934428 0.194346
6664 2 0.346112 0.0810089 0.194346
6903 2 0.358523 0.068575 0.194346
6904 2 0.358523 0.0934428 0.194346
7144 2 0.370935 0.0810089 0.194346
6304 1 0.3337 0.085152 0.203835
6543 1 0.346112 0.0727226 0.203835
6784 1 0.358523 0.085152 0.203835
7023 1 0.370935 0.0727226 0.203835
6463 2 0.3337 0.068575 0.213324
6464 2 0.3337 0.0934428 0.213324
6704 2 0.346112 0.0810089 0.213324
6943 2 0.358523 0.068575 0.213324
6944 2 0.358523 0.0934428 0.213324
7184 2 0.370935 0.0810089 0.213324
7383 2 0.383346 0.068575 0.194346
7384 2 0.383346 0.0934428 0.194346
7624 2 0.395758 0.0810089 0.194346
7863 2 0.40817 0.068575 0.194346
7864 2 0.40817 0.0934428 0.194346
8104 2 0.420581 0.0810089 0.194346
7264 1 0.383346 0.085152 0.203835
7503 1 0.395758 0.0727226 0.203835
7744 1 0.40817 0.085152 0.203835
7983 1 0.420581 0.0727226 0.203835
7423 2 0.383346 0.068575 0.213324
7424 2 0.383346 0.0934428 0.213324
7664 2 0.395758 0.0810089 0.213324
7903 2 0.40817 0.068575 0.213324
7904 2 0.40817 0.0934428 0.213324
8144 2 0.420581 0.0810089 0.213324
8343 2 0.432993 0.068575 0.194346
8344 2 0.432993 0.0934428 0.194346
8584 2 0.445405 0.0810089 0.194346
8823 2 0.457816 0.068575 0.194346
8824 2 0.457816 0.0934428 0.194346
9064 2 0.470228 0.0810089 0.194346
8224 1 0.432993 0.085152 0.203835
8463 1 0.445405 0.0727226 0.203835
8704 1 0.457816 0.085152 0.203835
8943 1 0.470228 0.0727226 0.203835
8383 2 0.432993 0.068575 0.213324
8384 2 0.432993 0.0934428 0.213324
8624 2 0.445405 0.0810089 0.213324
8863 2 0.457816 0.068575 0.213324
8864 2 0.457816 0.0934428 0.213324
9104 2 0.470228 0.0810089 0.213324
9303 2 0.482639 0.068575 0.194346
9304 2 0.482639 0.0934428 0.194346
9544 2 0.495051 0.0810089 0.194346
9784 2 0.507463 0.068575 0.194346
9785 2 0.507463 0.0934428 0.194346
10004 2 0.519874 0.0810089 0.194346
9184 1 0.482639 0.085152 0.203835
9423 1 0.495051 0.0727226 0.203835
9664 1 0.507463 0.085152 0.203835
9883 1 0.519874 0.0727226 0.203835
9343 2 0.482639 0.068575 0.213324
9344 2 0.482639 0.0934428 0.213324
9584 2 0.495051 0.0810089 0.213324
9804 2 0.507463 0.068575 0.213324
9805 2 0.507463 0.0934428 0.213324
10044 2 0.519874 0.0810089 0.213324
10243 2 0.532286 0.068575 0.194346
10244 2 0.532286 0.0934428 0.194346
10484 2 0.544698 0.0810089 0.194346
10723 2 0.557109 0.068575 0.194346
10724 2 0.557109 0.0934428 0.194346
10964 2 0.569521 0.0810089 0.194346
10124 1 0.532286 0.085152 0.203835
10363 1 0.544698 0.0727226 0.203835
10604 1 0.557109 0.085152 0.203835
10843 1 0.569521 0.0727226 0.203835
10283 2 0.532286 0.068575 0.213324
10284 2 0.532286 0.0934428 0.213324
10524 2 0.544698 0.0810089 0.213324
10763 2 0.557109 0.068575 0.213324
10764 2 0.557109 0.0934428 0.213324
11004 2 0.569521 0.0810089 0.213324
11203 2 0.581932 0.068575 0.194346
11204 2 0.581932 0.0934428 0.194346
11444 2 0.594344 0.0810089 0.194346
11683 2 0.606756 0.068575 0.194346
11684 2 0.606756 0.0934428 0.194346
11084 1 0.581932 0.085152 0.203835
11323 1 0.594344 0.0727226 0.203835
11564 1 0.606756 0.085152 0.203835
11243 2 0.581932 0.068575 0.213324
11244 2 0.581932 0.0934428 0.213324
11484 2 0.594344 0.0810089 0.213324
11723 2 0.606756 0.068575 0.213324
11724 2 0.606756 0.0934428 0.213324
11924 2 0.619167 0.0810089 0.194346
12163 2 0.631579 0.068575 0.194346
12164 2 0.631579 0.0934428 0.194346
12404 2 0.643991 0.0810089 0.194346
12643 2 0.656402 0.068575 0.194346
12644 2 0.656402 0.0934428 0.194346
11803 1 0.619167 0.0727226 0.203835
12044 1 0.631579 0.085152 0.203835
12283 1 0.643991 0.0727226 0.203835
12524 1 0.656402 0.085152 0.203835
11964 2 0.619167 0.0810089 0.213324
12203 2 0.631579 0.068575 0.213324
12204 2 0.631579 0.0934428 0.213324
12444 2 0.643991 0.0810089 0.213324
12683 2 0.656402 0.068575 0.213324
12684 2 0.656402 0.0934428 0.213324
12884 2 0.668814 0.0810089 0.194346
13123 2 0.681225 0.068575 0.194346
13124 2 0.681225 0.0934428 0.194346
13364 2 0.693637 0.0810089 0.194346
13603 2 0.706049 0.068575 0.194346
13604 2 0.706049 0.0934428 0.194346
12763 1 0.668814 0.0727226 0.203835
13004 1 0.681225 0.085152 0.203835
13243 1 0.693637 0.0727226 0.203835
13484 1 0.706049 0.085152 0.203835
12924 2 0.668814 0.0810089 0.213324
13163 2 0.681225 0.068575 0.213324
13164 2 0.681225 0.0934428 0.213324
13404 2 0.693637 0.0810089 0.213324
13643 2 0.706049 0.068575 0.213324
13644 2 0.706049 0.0934428 0.213324
13844 2 0.71846 0.0810089 0.194346
14083 2 0.730872 0.068575 0.194346
14084 2 0.730872 0.0934428 0.194346
14324 2 0.743284 0.0810089 0.194346
14563 2 0.755695 0.068575 0.194346
14564 2 0.755695 0.0934428 0.194346
13723 1 0.71846 0.0727226 0.203835
13964 1 0.730872 0.085152 0.203835
14203 1 0.743284 0.0727226 0.203835
14444 1 0.755695 0.085152 0.203835
13884 2 0.71846 0.0810089 0.213324
14123 2 0.730872 0.068575 0.213324
14124 2 0.730872 0.0934428 0.213324