ITEM: TIMESTEP
100000
ITEM: NUMBER OF ATOMS
28244
ITEM: BOX BOUNDS pp pp ff
-5.0000340585929337e-01 1.5850000340585936e+02
-1.3260901499999984e+00 1.6554412014999946e+02
-3.0000000000000000e+01 1.6228800000000001e+02
ITEM: ATOMS id type xs ys zs
497 2 0.0268829 0.0569891 0.150611
123 2 0.00754214 0.0557755 0.15065
317 2 0.0175987 0.040094 0.151056
496 2 0.0280303 0.023757 0.152058
316 2 0.016816 0.00798816 0.153167
122 2 0.00839834 0.0223261 0.15307
677 2 0.0373742 0.0393582 0.151321
676 2 0.0378309 0.00708674 0.152153
1217 2 0.0679413 0.0576661 0.150028
857 2 0.0478417 0.056422 0.14984
1037 2 0.0570892 0.0403047 0.150638
1216 2 0.0673048 0.0229108 0.15138
856 2 0.0471378 0.0234079 0.152324
1036 2 0.0574991 0.00753774 0.152006
1397 2 0.0778096 0.0395622 0.15108
1396 2 0.0776213 0.00655912 0.151879
1937 2 0.108115 0.0548617 0.150586
1577 2 0.0871904 0.0563762 0.151268
1757 2 0.0971477 0.0390228 0.151238
1576 2 0.0877025 0.0229709 0.151248
1756 2 0.0979277 0.0056098 0.151664
1936 2 0.107487 0.0217269 0.152663
2117 2 0.117849 0.0381921 0.151612
2476 2 0.138748 0.00614975 0.149881
2477 2 0.136657 0.0392377 0.151244
2657 2 0.147538 0.055625 0.150012
2297 2 0.127174 0.0555031 0.150776
2656 2 0.147615 0.0226303 0.151061
2296 2 0.127322 0.0224145 0.151171
2116 2 0.117033 0.00594101 0.150947
3377 2 0.186905 0.055959 0.14888
3376 2 0.187063 0.0232655 0.150326
3196 2 0.178657 0.00661311 0.150702
3017 2 0.168016 0.0556434 0.148977
2837 2 0.156848 0.0385476 0.150143
3197 2 0.177225 0.0383772 0.149368
3016 2 0.166735 0.0226411 0.150658
2836 2 0.158759 0.00602737 0.150739
3737 2 0.207827 0.0571729 0.149206
3556 2 0.198137 0.00676529 0.150413
4097 2 0.22833 0.0566467 0.149919
4096 2 0.227431 0.0222494 0.149543
3557 2 0.197448 0.0387558 0.149671
3916 2 0.218113 0.00672764 0.1506
3736 2 0.207273 0.0237486 0.149588
3917 2 0.21724 0.0402792 0.149187
4457 2 0.247906 0.0565024 0.150246
4276 2 0.238038 0.00665621 0.151452
4817 2 0.268259 0.0570224 0.14973
4277 2 0.237852 0.0404503 0.150716
4637 2 0.258194 0.0412944 0.151544
4816 2 0.268324 0.0244183 0.15206
4456 2 0.248487 0.0236334 0.150777
4636 2 0.258173 0.0071156 0.151952
5177 2 0.288319 0.0565306 0.15108
5357 2 0.298181 0.0406252 0.151605
5176 2 0.287621 0.0241748 0.151471
5356 2 0.297872 0.00730775 0.152005
4996 2 0.27679 0.0074281 0.151621
4997 2 0.27804 0.0406967 0.151381
5536 2 0.307524 0.0240548 0.151256
5537 2 0.307409 0.0571746 0.150972
6077 2 0.337504 0.0409367 0.1513
5897 2 0.32778 0.0564667 0.150996
5716 2 0.317245 0.00810673 0.152172
5717 2 0.31762 0.0407786 0.150992
5896 2 0.327737 0.0239705 0.15162
6076 2 0.337522 0.00710366 0.151215
6256 2 0.347204 0.0239013 0.151258
6257 2 0.34792 0.0572865 0.150655
6617 2 0.366979 0.0574365 0.15072
6797 2 0.378016 0.0394456 0.151316
6437 2 0.357173 0.0410949 0.150833
6616 2 0.367382 0.0235801 0.15146
6796 2 0.377869 0.00708856 0.150843
6436 2 0.35649 0.00757612 0.15028
6977 2 0.387037 0.056685 0.150671
6976 2 0.387138 0.0240923 0.151025
7337 2 0.408079 0.0568886 0.150581
7157 2 0.39747 0.0407358 0.150783
7517 2 0.417709 0.0404043 0.150299
7516 2 0.417576 0.00773993 0.150315
7156 2 0.397083 0.00741181 0.151239
7336 2 0.406933 0.0242616 0.150304
8057 2 0.447876 0.0570923 0.149993
7697 2 0.427731 0.0575323 0.149718
8237 2 0.457829 0.0400813 0.149175
7696 2 0.427775 0.0237183 0.149492
7877 2 0.438011 0.0402268 0.149501
8056 2 0.448625 0.0225917 0.149428
8236 2 0.457763 0.00645553 0.149734
7876 2 0.438679 0.00710658 0.149565
8597 2 0.477739 0.0409984 0.148851
8777 2 0.487984 0.0577368 0.149275
8776 2 0.488423 0.0232798 0.149142
8417 2 0.467623 0.0576927 0.150248
8416 2 0.468619 0.0234504 0.149252
8956 2 0.498381 0.00661549 0.150439
8596 2 0.477804 0.00671249 0.149017
8957 2 0.498109 0.0408023 0.149358
9301 2 0.517433 0.00653482 0.149884
9138 2 0.508171 0.0573559 0.149687
9302 2 0.518523 0.0405022 0.150462
9481 2 0.528786 0.0230547 0.150082
9137 2 0.508462 0.0240264 0.150943
9482 2 0.527998 0.0575897 0.149293
9662 2 0.538598 0.0402457 0.150291
9661 2 0.53821 0.00721142 0.150541
10021 2 0.558216 0.00740536 0.150711
10202 2 0.566855 0.0581446 0.149566
9842 2 0.547744 0.0574358 0.150087
9841 2 0.548291 0.023582 0.150814
10022 2 0.558592 0.040755 0.149775
10201 2 0.568198 0.0237924 0.149961
10382 2 0.578369 0.0407412 0.149669
10381 2 0.578743 0.00732102 0.150592
10562 2 0.587537 0.0572239 0.149312
10922 2 0.609187 0.0582612 0.149512
10742 2 0.598318 0.0409049 0.149574
10741 2 0.597452 0.00743672 0.150767
10921 2 0.60713 0.0245747 0.150119
10561 2 0.587896 0.0241954 0.15074
11102 2 0.618872 0.0404544 0.14957
11282 2 0.628133 0.0573651 0.149131
11462 2 0.638082 0.0407589 0.14909
11642 2 0.648365 0.0572591 0.149442
11281 2 0.627845 0.0234907 0.150229
11641 2 0.647809 0.0239711 0.149032
11101 2 0.61771 0.00757987 0.150137
11461 2 0.637504 0.00628009 0.149706
12361 2 0.687816 0.0241597 0.150253
12001 2 0.668358 0.0239725 0.150033
12002 2 0.667923 0.0571896 0.149635
11822 2 0.658008 0.0405009 0.149036
12182 2 0.677659 0.0403704 0.149493
12362 2 0.688149 0.0575268 0.150133
12181 2 0.67793 0.00764795 0.150116
11821 2 0.658275 0.00759123 0.149051
12542 2 0.698401 0.0402471 0.150453
13082 2 0.728342 0.0564723 0.149715
12902 2 0.717695 0.0404038 0.149816
12722 2 0.708417 0.0565001 0.150064
12721 2 0.707655 0.0240928 0.150545
13081 2 0.727862 0.0233585 0.150679
12541 2 0.697622 0.00740788 0.149921
12901 2 0.71745 0.00708828 0.149622
13442 2 0.74739 0.0566048 0.150309
13802 2 0.767276 0.0571361 0.150204
13622 2 0.756987 0.0404498 0.151175
13441 2 0.747481 0.0230016 0.151176
13262 2 0.737798 0.0399574 0.150653
13261 2 0.73764 0.0067892 0.150087
13801 2 0.766935 0.0233517 0.150582
13621 2 0.757546 0.00709557 0.150521
14162 2 0.78804 0.0579804 0.150463
13982 2 0.777528 0.0403385 0.149828
14341 2 0.797536 0.0066062 0.150522
13981 2 0.776708 0.00640299 0.150811
14161 2 0.787271 0.0234758 0.149568
14342 2 0.797315 0.0398495 0.14919
14521 2 0.808369 0.0226774 0.150926
14522 2 0.807386 0.0567344 0.149997
14701 2 0.818024 0.00642247 0.151622
15061 2 0.837791 0.00624504 0.151998
14882 2 0.828202 0.0560567 0.151231
14702 2 0.818451 0.0392608 0.151168
15062 2 0.837797 0.0388063 0.151128
14881 2 0.827834 0.0224327 0.152098
15242 2 0.846716 0.0562561 0.150818
15241 2 0.848192 0.0222678 0.152687
15422 2 0.857783 0.0396576 0.152696
15602 2 0.867408 0.0560897 0.151032
15782 2 0.877842 0.0400911 0.152064
15601 2 0.867751 0.0234029 0.15286
15421 2 0.858872 0.00605057 0.152898
15781 2 0.878032 0.00641556 0.1534
15962 2 0.887386 0.056249 0.151129
16322 2 0.907956 0.0566708 0.151368
16142 2 0.898129 0.0392361 0.152559
16502 2 0.917617 0.0395038 0.152789
15961 2 0.887248 0.0232529 0.153135
16321 2 0.907842 0.0232248 0.153324
16141 2 0.897688 0.0068723 0.153237
16501 2 0.917182 0.00711827 0.153781
17222 2 0.958166 0.0387259 0.152062
16682 2 0.927826 0.0564994 0.150152
17042 2 0.947299 0.0558996 0.150416
16862 2 0.938161 0.0389338 0.151668
16681 2 0.927188 0.0230012 0.152543
17041 2 0.947897 0.022111 0.152363
17221 2 0.958054 0.00627047 0.152963
16861 2 0.93719 0.00626592 0.153047
17402 2 0.967008 0.0555196 0.150392
17762 2 0.987055 0.0558051 0.150548
17942 2 0.997412 0.0390865 0.151083
17581 2 0.978042 0.00646093 0.152405
17401 2 0.967101 0.0225001 0.153287
17582 2 0.977039 0.0386086 0.151683
17941 2 0.999382 0.00764513 0.153018
17761 2 0.987543 0.0229618 0.15202
32 1 0.00705177 0.0454784 0.158947
407 1 0.0271111 0.0461046 0.158706
31 1 0.00837535 0.0121885 0.162489
226 1 0.0176853 0.0296407 0.160319
406 1 0.0280512 0.0129843 0.160295
586 1 0.0377099 0.0299844 0.160335
167 2 0.00719174 0.0493183 0.17544
346 2 0.0166823 0.00402882 0.175418
166 2 0.00634392 0.0190979 0.177607
347 2 0.0183905 0.0339686 0.176685
526 2 0.0279887 0.0188957 0.177431
707 2 0.037775 0.0355662 0.176918
527 2 0.0264476 0.0510743 0.177081
18759 3 0.715543 0.0010919 0.283846
466 2 0.0265294 0.00792288 0.188832
24142 3 0.16451 0.025654 0.937566
706 2 0.0367711 0.00370383 0.175259
767 1 0.0478057 0.0458458 0.158585
1127 1 0.067316 0.0462928 0.15818
766 1 0.0479175 0.01267 0.160095
946 1 0.0572607 0.029692 0.159668
1126 1 0.0678379 0.0126021 0.160099
887 2 0.0459376 0.0500582 0.176066
1246 2 0.0681362 0.0186036 0.176024
1247 2 0.0644643 0.0494805 0.175777
1066 2 0.0574173 0.00383244 0.173838
1067 2 0.0559652 0.034714 0.176013
886 2 0.0472312 0.0185607 0.175399
1186 2 0.0666565 0.00737579 0.188141
1427 2 0.0743195 0.0332554 0.174473
1426 2 0.078262 0.00382349 0.174611
19136 3 0.614136 0.00120139 0.359945
1306 1 0.0775894 0.0286092 0.15968
1487 1 0.0873949 0.0456116 0.159309
1847 1 0.107477 0.0439201 0.159053
1486 1 0.0881317 0.0117262 0.159786
1666 1 0.097353 0.0278606 0.159807
1846 1 0.108254 0.0105088 0.16038
1606 2 0.0887935 0.0215775 0.175157
1607 2 0.0830453 0.0491191 0.174751
1786 2 0.098591 0.00577249 0.174096
1967 2 0.110428 0.0544192 0.176692
1966 2 0.107329 0.0224216 0.174764
1787 2 0.0989686 0.0388791 0.17679
1727 2 0.0944893 0.0533406 0.186362
1546 2 0.0874945 0.0088143 0.187019
1906 2 0.108163 0.00948144 0.187234
28654 3 0.61018 0.00545123 0.39988
1547 2 0.0852102 0.0385839 0.186971
27673 3 0.609053 0.00770475 0.381143
2147 2 0.119241 0.0376866 0.176173
2026 1 0.117997 0.0278329 0.159655
2146 2 0.118124 0.0057426 0.173694
2207 1 0.126885 0.0449482 0.159714
2567 1 0.147721 0.0444752 0.158703
2206 1 0.127811 0.0109046 0.158371
2386 1 0.137457 0.0276635 0.159561
2566 1 0.147856 0.0114472 0.15892
2326 2 0.127395 0.0221142 0.174468
2327 2 0.129972 0.05315 0.177291
2506 2 0.137893 0.00628835 0.174867
2507 2 0.13895 0.0376513 0.176584
2687 2 0.149179 0.052933 0.177117
2686 2 0.148361 0.0213845 0.175777
2626 2 0.148648 0.00947161 0.188631
2266 2 0.128484 0.00974911 0.187781
19369 3 0.485046 0.00324194 0.370307
27929 3 0.503971 0.00616732 0.412038
2866 2 0.158438 0.00528919 0.174672
2867 2 0.159385 0.036648 0.176031
2927 1 0.167338 0.0452962 0.156976
3287 1 0.187217 0.0449896 0.157416
2746 1 0.157553 0.02839 0.159349
2926 1 0.168058 0.0117888 0.158862
3106 1 0.177119 0.0290061 0.158511
3286 1 0.187997 0.0122694 0.158502
3046 2 0.168144 0.0206084 0.176928
3047 2 0.16899 0.0516238 0.175327
3226 2 0.178095 0.00502137 0.175402
3227 2 0.178764 0.0368707 0.176466
3406 2 0.187823 0.0212152 0.175508
3407 2 0.189275 0.0518439 0.174602
2986 2 0.168492 0.00858245 0.189204
3346 2 0.188021 0.0105524 0.188463
28760 3 0.675079 0.0112737 0.316355
27512 3 0.484158 0.00838588 0.225596
3647 1 0.207254 0.0458674 0.157113
4007 1 0.2274 0.0460591 0.157864
3466 1 0.197837 0.0286922 0.157887
3646 1 0.208147 0.012859 0.157928
3826 1 0.217723 0.0288224 0.157144
4006 1 0.22794 0.0123055 0.158972
3586 2 0.197951 0.00619877 0.173841
3587 2 0.197818 0.0355346 0.17592
3766 2 0.208276 0.0213505 0.177574
3767 2 0.208673 0.0512794 0.175316
3946 2 0.218176 0.00550666 0.174692
3947 2 0.218376 0.0357091 0.175436
4126 2 0.227394 0.0203853 0.175679
4127 2 0.228547 0.0507337 0.176284
3706 2 0.207625 0.00942238 0.187977
4066 2 0.22784 0.00939075 0.188585
19356 3 0.776059 0.0319192 0.553625
4367 1 0.24777 0.0461282 0.159154
4727 1 0.267927 0.0464848 0.159383
4186 1 0.237045 0.0290004 0.157872
4366 1 0.247802 0.0129579 0.159712
4546 1 0.257233 0.0299514 0.159591
4726 1 0.268176 0.0131122 0.16035
4306 2 0.238877 0.00563808 0.174847
4307 2 0.239241 0.0357046 0.176024
4486 2 0.24765 0.0200812 0.176218
4487 2 0.249117 0.0507132 0.175717
4666 2 0.257986 0.00464238 0.173837
4667 2 0.259099 0.0356001 0.177087
4847 2 0.268906 0.0515312 0.176719
4426 2 0.24872 0.00798765 0.188556
4846 2 0.267054 0.0198529 0.176515
28749 3 0.572932 0.0478574 0.556784
5087 1 0.287839 0.0461032 0.159466
4906 1 0.278174 0.0299634 0.160075
5086 1 0.287568 0.0124888 0.15942
5266 1 0.297865 0.0296114 0.159333
5026 2 0.278214 0.00523921 0.1749
5027 2 0.277567 0.0355717 0.177909
5206 2 0.287374 0.0205981 0.1776
5207 2 0.287843 0.0496695 0.175359
5386 2 0.298321 0.00574653 0.176506
5387 2 0.296917 0.0352901 0.176323
5327 2 0.298689 0.0554491 0.187457
5446 1 0.307308 0.0133486 0.160038
5506 2 0.308004 0.00880652 0.188883
5566 2 0.307538 0.0207508 0.176331
5567 2 0.308082 0.0504514 0.174501
5447 1 0.307837 0.0466205 0.159168
5626 1 0.317737 0.0297789 0.159589
5806 1 0.327797 0.0130077 0.160052
5807 1 0.327877 0.0465523 0.159498
5986 1 0.337991 0.0298914 0.159746
5746 2 0.317176 0.00536437 0.175693
5747 2 0.318718 0.0341309 0.175139
5926 2 0.328202 0.0198501 0.175995
5927 2 0.328118 0.0499001 0.175875
6106 2 0.337181 0.005436 0.173102
6107 2 0.337953 0.0348023 0.176769
6287 2 0.347203 0.0499182 0.176823
6286 2 0.348705 0.0198906 0.174778
5866 2 0.328657 0.00824551 0.187694
6047 2 0.339497 0.0561252 0.188843
6527 1 0.367536 0.0458864 0.158884
6167 1 0.347334 0.0468065 0.15968
6166 1 0.347284 0.0131273 0.159058
6346 1 0.357411 0.0298548 0.159034
6526 1 0.367443 0.0119454 0.158941
6706 1 0.377508 0.0288046 0.159791
6466 2 0.358124 0.00604261 0.173302
6467 2 0.356069 0.0360675 0.175291
6646 2 0.367915 0.0221905 0.17521
6647 2 0.367458 0.0499772 0.175784
6826 2 0.378914 0.00610646 0.173549
6827 2 0.380193 0.0387293 0.17781
6767 2 0.378407 0.0539959 0.187758
6587 2 0.367301 0.0397779 0.18791
6407 2 0.35779 0.0551249 0.188139
6586 2 0.36881 0.00969139 0.186495
6226 2 0.348807 0.00806763 0.187735
7247 1 0.407676 0.0458556 0.158745
6886 1 0.387347 0.0126975 0.159302
6887 1 0.387535 0.0457843 0.159019
7007 2 0.392207 0.0534986 0.176716
7006 2 0.388122 0.0213651 0.175841
7066 1 0.397309 0.029735 0.158871
7246 1 0.407956 0.0131094 0.158581
7426 1 0.417998 0.0292988 0.15848
7186 2 0.398102 0.00529511 0.174686
7187 2 0.399827 0.0373295 0.176203
7366 2 0.408136 0.0210451 0.174413
7367 2 0.410639 0.0528034 0.173724
7546 2 0.417589 0.00679761 0.17402
7547 2 0.4187 0.0355012 0.173723
7306 2 0.408421 0.00991159 0.187156
6946 2 0.387896 0.010144 0.186655
7727 2 0.429912 0.0518961 0.173488
7606 1 0.428661 0.0124808 0.157517
7607 1 0.428058 0.0459381 0.158059
7786 1 0.438619 0.029064 0.157272
7966 1 0.448264 0.012596 0.158172
7967 1 0.447768 0.0455162 0.157288
8146 1 0.458595 0.0290788 0.157168
7726 2 0.429054 0.0208921 0.174248
7906 2 0.437589 0.00585398 0.173152
8086 2 0.449245 0.0210286 0.173951
8266 2 0.457885 0.00520626 0.172481
8267 2 0.460815 0.0360971 0.174355
7907 2 0.439041 0.0358445 0.173527
8087 2 0.449938 0.0522303 0.173557
7666 2 0.429105 0.010065 0.187298
8026 2 0.446514 0.0101347 0.185452
8326 1 0.468051 0.0122597 0.157534
8327 1 0.467826 0.0456431 0.157256
8506 1 0.478376 0.0294419 0.156595
8686 1 0.488195 0.0125761 0.157215
8687 1 0.487418 0.0463519 0.157143
8866 1 0.497517 0.029696 0.158133
8446 2 0.470179 0.0211937 0.1742
8447 2 0.470431 0.0506126 0.173948
8626 2 0.478873 0.00516282 0.172637
8627 2 0.479339 0.0357518 0.175303
8806 2 0.489899 0.0216443 0.175199
8807 2 0.490275 0.0505851 0.175177
8986 2 0.498198 0.00484658 0.173502
8987 2 0.500037 0.0364018 0.175627
9046 1 0.507489 0.012527 0.15887
9047 1 0.508103 0.046322 0.157884
9211 1 0.518887 0.0294572 0.15851
9391 1 0.52775 0.0119868 0.158278
9392 1 0.528517 0.0466058 0.158569
9571 1 0.538243 0.0298573 0.158008
9152 2 0.508515 0.0204379 0.175165
9153 2 0.509481 0.052365 0.176508
9331 2 0.517557 0.00568667 0.174596
9511 2 0.528157 0.0200583 0.1759
9512 2 0.527755 0.0507141 0.176175
9332 2 0.518543 0.0356964 0.175839
9691 2 0.537623 0.00617291 0.175285
9107 2 0.508531 0.00880868 0.186473
9692 2 0.538924 0.0349064 0.174964
9751 1 0.547753 0.0126045 0.158829
9752 1 0.548467 0.045998 0.158245
9931 1 0.559014 0.0299746 0.157767
10111 1 0.568407 0.0126249 0.158643
10112 1 0.568476 0.0469029 0.157821
9871 2 0.548773 0.0202024 0.175939
9872 2 0.548428 0.0512555 0.176757
10051 2 0.558232 0.00444168 0.173714
10052 2 0.55822 0.0364141 0.175826
10231 2 0.567461 0.0207955 0.176223
10232 2 0.568678 0.0513034 0.175535
10291 1 0.577807 0.0299948 0.158166
10411 2 0.577242 0.00446863 0.174154
10412 2 0.579547 0.0352293 0.175348
10471 1 0.587982 0.0133558 0.159097
10472 1 0.588458 0.0467058 0.157805
10651 1 0.597991 0.0300498 0.158324
10831 1 0.607591 0.0132565 0.158288
10832 1 0.608521 0.0468654 0.157374
10591 2 0.588048 0.019814 0.174141
10592 2 0.588244 0.0515836 0.173994
10771 2 0.596999 0.00482291 0.173742
10772 2 0.598432 0.035828 0.175628
10951 2 0.608909 0.0210063 0.173851
10952 2 0.608133 0.0516014 0.175387
11131 2 0.617455 0.00497081 0.173539
11011 1 0.617723 0.0297253 0.15811
11132 2 0.617311 0.0354919 0.175079
11191 1 0.627476 0.0127784 0.158375
11192 1 0.62851 0.0465954 0.157081
11371 1 0.637976 0.0295611 0.157299
11551 1 0.647639 0.0126225 0.15699
11552 1 0.648287 0.0460262 0.157547
11311 2 0.627544 0.020354 0.175687
11312 2 0.627964 0.0515334 0.174644
11491 2 0.637113 0.00596126 0.173897
11492 2 0.637144 0.0361886 0.175405
11671 2 0.648272 0.0209211 0.175597
11672 2 0.648671 0.0519254 0.17473
11731 1 0.657681 0.0293403 0.157064
11911 1 0.667342 0.0125641 0.158213
11912 1 0.667562 0.0462527 0.1576
12091 1 0.677877 0.0291208 0.158186
12271 1 0.688269 0.0124504 0.159061
12272 1 0.687558 0.0460205 0.158169
11851 2 0.659988 0.00493147 0.174403
11852 2 0.657816 0.0360458 0.174903
12031 2 0.667199 0.0209074 0.175201
12032 2 0.668618 0.0522808 0.174925
12211 2 0.679071 0.00618543 0.173972
12212 2 0.678646 0.0359989 0.175645
12391 2 0.687865 0.0208364 0.175923
12392 2 0.688079 0.0516379 0.17439
12451 1 0.69799 0.0294067 0.158779
12631 1 0.707583 0.0118278 0.158305
12632 1 0.70749 0.0457275 0.158503
12811 1 0.71798 0.0295382 0.158485
12991 1 0.727919 0.0121892 0.158228
12992 1 0.727694 0.0457778 0.158569
12571 2 0.698404 0.00556988 0.173489
12572 2 0.698017 0.0364875 0.175513
12751 2 0.70807 0.0200027 0.176291
12752 2 0.709142 0.0508762 0.175984
12931 2 0.71868 0.00509225 0.173648
12932 2 0.718237 0.0355411 0.176055
13111 2 0.727432 0.0205916 0.175211
13112 2 0.728969 0.050401 0.175369
13171 1 0.737791 0.0287049 0.159267
13351 1 0.747006 0.0119132 0.158474
13352 1 0.746947 0.0457271 0.159264
13531 1 0.75743 0.0290589 0.159122
13711 1 0.766501 0.0123475 0.158765
13712 1 0.76772 0.0457132 0.158264
13291 2 0.737963 0.00548809 0.174456
13292 2 0.737333 0.0344383 0.175683
13471 2 0.748513 0.0189008 0.175233
13472 2 0.748694 0.049857 0.174592
13651 2 0.757694 0.00384657 0.174195
13652 2 0.757104 0.0341437 0.175962
13832 2 0.767647 0.0497431 0.175534
13831 2 0.767805 0.0193889 0.176687
13891 1 0.778068 0.0291078 0.157857
14071 1 0.787292 0.0126094 0.158205
14072 1 0.78736 0.0461625 0.157454
14251 1 0.797182 0.0292667 0.157676
14011 2 0.778203 0.00471262 0.173509
14012 2 0.777539 0.034261 0.175689
14191 2 0.788134 0.0193004 0.176023
14192 2 0.787562 0.0497391 0.175839
14371 2 0.798455 0.00438959 0.175159
14372 2 0.798038 0.0337642 0.175359
14431 1 0.807383 0.0121324 0.159607
14552 2 0.807513 0.0499266 0.173778
14432 1 0.807263 0.0455913 0.157665
14551 2 0.808007 0.0189935 0.178191
14792 1 0.828494 0.0452877 0.159191
14611 1 0.816926 0.0284754 0.159422
14791 1 0.827418 0.0117833 0.160289
14971 1 0.837724 0.0287605 0.159651
14731 2 0.819153 0.00485374 0.176164
14732 2 0.817901 0.0344494 0.177417
14911 2 0.826994 0.0199553 0.176726
14912 2 0.828294 0.0502272 0.176198
15091 2 0.838656 0.00392101 0.176314
15092 2 0.838575 0.0354539 0.177061
14851 2 0.828617 0.0072571 0.189804
28377 3 0.57853 0.0140951 0.414349
15271 2 0.848304 0.0194056 0.177201
15151 1 0.847497 0.010996 0.160986
15152 1 0.847182 0.0458719 0.159629
15272 2 0.847632 0.0489721 0.176062
15512 1 0.867861 0.0460627 0.160214
15331 1 0.857669 0.0286371 0.160833
15511 1 0.867424 0.0120993 0.161273
15691 1 0.877759 0.0294995 0.160835
15451 2 0.857487 0.00385292 0.175831
15452 2 0.857599 0.0346835 0.177181
15631 2 0.867314 0.0186774 0.177579
15632 2 0.866219 0.0501569 0.176047
15811 2 0.878018 0.00428041 0.176082
15812 2 0.877372 0.0340471 0.176558
15211 2 0.847721 0.00842032 0.188281
15572 2 0.867193 0.0408984 0.189913
15392 2 0.857116 0.0548766 0.188869
28086 3 0.391703 0.00554156 0.323762
15692 1 0.877418 0.0628309 0.158195
15992 2 0.887187 0.0497173 0.176528
15991 2 0.887207 0.0191371 0.177925
15872 1 0.888117 0.0459815 0.160268
15871 1 0.887484 0.0120059 0.161469
16232 1 0.908128 0.0459729 0.16047
16411 1 0.917938 0.0290962 0.16101
16051 1 0.89751 0.0289499 0.161544
16231 1 0.907549 0.0124503 0.161938
16171 2 0.897258 0.00421838 0.175928
16531 2 0.9167 0.00338842 0.176622
16351 2 0.907568 0.0187769 0.177605
16532 2 0.917585 0.0331561 0.177994
16352 2 0.907799 0.0488773 0.175891
16172 2 0.897628 0.0353237 0.17668
15931 2 0.888312 0.00853528 0.189593
16291 2 0.907962 0.00689991 0.189385
15932 2 0.88583 0.0389567 0.189962
16292 2 0.906965 0.0390145 0.188694
16112 2 0.897727 0.0541373 0.189481
28355 3 0.559124 0.000592415 0.295129
27995 3 0.548129 0.00509865 0.373685
16592 1 0.927125 0.045932 0.159376
16771 1 0.937761 0.0285136 0.160183
16952 1 0.947526 0.045138 0.159188
17131 1 0.957124 0.0290497 0.16101
16591 1 0.92763 0.0119445 0.16145
16951 1 0.947651 0.0115092 0.160622
16891 2 0.938504 0.00330032 0.17626
17072 2 0.947389 0.0495001 0.177682
17251 2 0.958095 0.00242868 0.177078
16892 2 0.937182 0.0342357 0.177921
17071 2 0.948055 0.0195227 0.177099
17252 2 0.957785 0.0342874 0.177336
16711 2 0.927964 0.0183432 0.177064
16712 2 0.927198 0.0503456 0.177838
28014 3 0.548731 0.0017208 0.242523
27947 3 0.288974 0.000622956 0.345393
17312 1 0.967555 0.0452904 0.159556
17672 1 0.987349 0.045095 0.158584
17311 1 0.967815 0.0116595 0.161208
17491 1 0.977591 0.0282988 0.160977
17671 1 0.988204 0.0116608 0.160638
17851 1 0.997353 0.0289971 0.160266
17971 2 0.997013 0.00410325 0.176094
17431 2 0.96829 0.0190598 0.175095
17611 2 0.978204 0.00423398 0.17734
17791 2 0.986866 0.0188846 0.176907
17612 2 0.978155 0.0343171 0.176364
17972 2 0.996934 0.0343641 0.175996
17432 2 0.966462 0.0491517 0.176814
17792 2 0.986827 0.0499295 0.176375
18529 3 0.440283 0.00387923 0.392221
18743 3 0.358191 0.00340901 0.371199
92 2 0.00773058 0.00721354 0.189341
647 2 0.0361673 0.0546963 0.188577
196 1 0.0182482 0.00154427 0.196994
556 1 0.038301 0.00196875 0.201709
93 2 0.00787526 0.0391737 0.188876
467 2 0.0273333 0.039684 0.188875
286 2 0.018428 0.0234042 0.189941
16 1 0.00836884 0.0179845 0.20278
17 1 0.00748596 0.0510422 0.203756
197 1 0.017789 0.0351094 0.198081
376 1 0.0279752 0.0180094 0.202259
377 1 0.0277552 0.0511455 0.203642
557 1 0.0374365 0.0346159 0.20295
287 2 0.0158233 0.056693 0.18915
256 2 0.0182296 0.0227722 0.210563
617 2 0.0383908 0.0565165 0.211893
257 2 0.0179669 0.0566 0.212065
437 2 0.0284122 0.0403126 0.211941
436 2 0.0283151 0.00700354 0.210502
62 2 0.00819301 0.00678014 0.210364
63 2 0.00760967 0.0397953 0.211303
646 2 0.0383096 0.0240784 0.188287
616 2 0.0373453 0.0234308 0.211126
826 2 0.0474078 0.00854051 0.187475
1007 2 0.0553921 0.0558847 0.188939
827 2 0.047438 0.0392109 0.188608
1187 2 0.0667966 0.0393008 0.188515
1367 2 0.075063 0.0550809 0.18794
1006 2 0.0574365 0.0240136 0.18883
736 1 0.0472673 0.018497 0.197139
737 1 0.0471965 0.0518554 0.203075
917 1 0.0570816 0.0342048 0.202295
1096 1 0.067526 0.0183565 0.196959
1097 1 0.0668817 0.0512452 0.203356
916 1 0.0566541 0.00191932 0.202094
1157 2 0.0672855 0.0397327 0.2105
796 2 0.0473298 0.00614278 0.210641
976 2 0.0560607 0.0233702 0.21058
797 2 0.0476717 0.0399541 0.210258
977 2 0.0572705 0.0568569 0.212055
1156 2 0.0674924 0.00734432 0.209671
1366 2 0.0776222 0.023827 0.188401
1337 2 0.0772343 0.0564554 0.211662
1907 2 0.10971 0.0416661 0.188746
1276 1 0.0778316 0.00264805 0.201929
1336 2 0.0785835 0.0243265 0.211008
1277 1 0.0778861 0.0344383 0.202524
1636 1 0.0972181 0.00248582 0.201485
1726 2 0.0977484 0.0245942 0.188455
1456 1 0.0879544 0.0185884 0.196118
1457 1 0.0868671 0.051831 0.202696
1637 1 0.0974056 0.0356775 0.2011
1816 1 0.107702 0.0198137 0.196549
1817 1 0.108027 0.0517663 0.202747
1877 2 0.107129 0.0400961 0.209954
1517 2 0.0873085 0.0405944 0.210058
1876 2 0.107533 0.00741901 0.209828
1697 2 0.0974377 0.0568926 0.210554
1516 2 0.0876618 0.00791155 0.210187
1696 2 0.0970495 0.0249784 0.209721
2447 2 0.139328 0.058986 0.18988
2086 2 0.117953 0.0244567 0.188499
2267 2 0.128604 0.0418026 0.188322
2446 2 0.137881 0.0247395 0.188499
2627 2 0.147369 0.0413339 0.189542
2087 2 0.120173 0.058505 0.189155
2056 2 0.117179 0.0243749 0.209963
2057 2 0.117737 0.0571727 0.210791
1996 1 0.117133 0.00303151 0.20157
1997 1 0.117775 0.0346269 0.202114
2356 1 0.137269 0.00289925 0.202048
2176 1 0.128007 0.0192971 0.197071
2177 1 0.127618 0.0521995 0.202404
2357 1 0.137859 0.0346576 0.202043
2536 1 0.147624 0.0198727 0.197111
2537 1 0.148029 0.0516919 0.202531
2596 2 0.147227 0.00837004 0.210084
2236 2 0.127513 0.00774223 0.210393
2597 2 0.147529 0.0404804 0.210476
2237 2 0.127858 0.0404277 0.210153
2416 2 0.136486 0.024149 0.211401
2417 2 0.138059 0.0567914 0.210403
3167 2 0.179708 0.0567323 0.187652
2807 2 0.159536 0.0574583 0.188592
2987 2 0.168452 0.0404395 0.188853
3347 2 0.188777 0.0410366 0.188125
2806 2 0.158061 0.0257378 0.189551
3166 2 0.17784 0.02456 0.18957
2716 1 0.157457 0.00270495 0.202028
2717 1 0.158074 0.0361879 0.202176
2896 1 0.167704 0.0191536 0.19773
2897 1 0.167887 0.0526124 0.203287
3076 1 0.177537 0.00311134 0.202086
3077 1 0.178096 0.0356075 0.202804
3256 1 0.187856 0.0198361 0.19815
3257 1 0.188279 0.0517084 0.202889
3137 2 0.178634 0.0574476 0.210775
3316 2 0.187193 0.00703521 0.21084
2956 2 0.167487 0.00872568 0.210737
3317 2 0.187669 0.0409157 0.210959
2957 2 0.16755 0.0409656 0.210745
2776 2 0.157527 0.0248953 0.209779
2777 2 0.157373 0.0567835 0.211593
3136 2 0.177188 0.0241213 0.210716
3527 2 0.199753 0.0571273 0.188924
4067 2 0.228935 0.0398933 0.188671
3887 2 0.219051 0.0556572 0.189026
3526 2 0.1978 0.0259107 0.189885
3707 2 0.209602 0.0409404 0.188317
3886 2 0.218375 0.0239357 0.189235
3436 1 0.197004 0.00320494 0.201884
3437 1 0.19841 0.0355946 0.203237
3616 1 0.208006 0.0190839 0.197373
3617 1 0.208187 0.0522621 0.203167
3796 1 0.218374 0.00298244 0.20143
3797 1 0.217851 0.035597 0.20289
3976 1 0.227745 0.0192144 0.197707
3977 1 0.228268 0.0515448 0.203937
4036 2 0.228496 0.00731913 0.210395
4037 2 0.228194 0.040192 0.211361
3857 2 0.217649 0.0570956 0.211247
3497 2 0.198676 0.0572612 0.211114
3676 2 0.208214 0.00718534 0.209891
3856 2 0.21863 0.0253326 0.211739
3677 2 0.208461 0.0409296 0.210915
3496 2 0.199991 0.0245037 0.211355
4786 2 0.268021 0.00933516 0.188389
4247 2 0.238328 0.05607 0.188886
4246 2 0.23749 0.0242792 0.189286
4427 2 0.248154 0.0401017 0.188835
4606 2 0.258132 0.024004 0.189657
4157 1 0.238323 0.0346948 0.202558
4336 1 0.248046 0.0188764 0.197546
4337 1 0.247982 0.0510072 0.203692
4516 1 0.258054 0.00259021 0.202058
4517 1 0.258271 0.0349061 0.203053
4696 1 0.268371 0.0183188 0.197853
4697 1 0.268534 0.0517666 0.203222
4607 2 0.258991 0.0554987 0.188217
4396 2 0.2479 0.00782472 0.210202
4156 1 0.238484 0.00289327 0.201818
4756 2 0.268137 0.00660332 0.210795
4577 2 0.258579 0.0567325 0.211682
4397 2 0.248119 0.0396034 0.211075
4757 2 0.268905 0.0403266 0.211365
4217 2 0.23793 0.056257 0.211993
4576 2 0.258935 0.0236201 0.211085
4216 2 0.238892 0.0239454 0.210943
4787 2 0.267796 0.0407292 0.190386
5146 2 0.287384 0.00840585 0.189252
4967 2 0.279722 0.0555765 0.188527
5147 2 0.288732 0.0398176 0.188946
4966 2 0.278091 0.0247861 0.189589
5326 2 0.297778 0.0249572 0.189945
4876 1 0.278171 0.00222746 0.202302
4877 1 0.278507 0.034931 0.202819
5056 1 0.288332 0.0186877 0.19787
5057 1 0.28891 0.0510797 0.202765
5237 1 0.298494 0.0348435 0.203232
5117 2 0.288568 0.0407226 0.211482
5297 2 0.298869 0.0573609 0.211194
5236 1 0.29788 0.00287768 0.201944
5296 2 0.29811 0.0238467 0.211343
5116 2 0.287905 0.00765428 0.210394
4937 2 0.2794 0.0569677 0.211007
4936 2 0.278466 0.0242986 0.21204
5477 2 0.309328 0.0405704 0.211235
5507 2 0.308365 0.0401853 0.186806
5476 2 0.308506 0.00836856 0.209857
5686 2 0.317946 0.0242817 0.188447
6046 2 0.33903 0.0245724 0.188635
5416 1 0.308283 0.0192791 0.197146
5417 1 0.308975 0.0519629 0.202633
5687 2 0.316224 0.055584 0.188079
5867 2 0.326843 0.0406796 0.187923
5596 1 0.318083 0.0034191 0.201207
5597 1 0.318715 0.034836 0.201928
5776 1 0.328118 0.0185454 0.196393
5777 1 0.329058 0.0517765 0.201895
5957 1 0.339371 0.0342703 0.202571
5836 2 0.328511 0.00744284 0.209893
5837 2 0.328444 0.0409103 0.20978
5657 2 0.319418 0.0570775 0.210602
6016 2 0.339068 0.0239077 0.211487
5956 1 0.338889 0.00262325 0.201769
6017 2 0.3387 0.0567483 0.210594
5656 2 0.318397 0.0245253 0.210647
6227 2 0.348433 0.0390607 0.1887
6137 1 0.348807 0.05122 0.202284
6136 1 0.348919 0.0186202 0.196949
6196 2 0.349323 0.00793516 0.210059
6197 2 0.348972 0.0403037 0.210407
6406 2 0.358363 0.0238643 0.188376
6766 2 0.378538 0.0250758 0.188681
6317 1 0.35852 0.0345167 0.201943
6496 1 0.368935 0.0184848 0.196215
6497 1 0.367996 0.0515976 0.202245
6677 1 0.378676 0.0350231 0.201913
6556 2 0.369003 0.00684276 0.210578
6557 2 0.368074 0.0399182 0.209735
6377 2 0.357821 0.0571612 0.210771
6316 1 0.359009 0.00301934 0.201241
6676 1 0.378087 0.00216525 0.201449
6736 2 0.378095 0.0237511 0.209786
6737 2 0.377865 0.0567452 0.210865
6376 2 0.358977 0.0239084 0.209781
7307 2 0.411394 0.0415137 0.187731
7487 2 0.420763 0.0577461 0.186997
7127 2 0.401581 0.0574051 0.188434
7126 2 0.39901 0.0255213 0.18901
7486 2 0.418401 0.0245347 0.187259
6857 1 0.388025 0.0514715 0.202761
6917 2 0.388085 0.0397214 0.210464
6947 2 0.391713 0.0419858 0.189069
6856 1 0.388837 0.0185567 0.196579
7036 1 0.398963 0.00234926 0.201267
7037 1 0.398964 0.0348916 0.203191
7216 1 0.409127 0.0196407 0.19678
7217 1 0.407548 0.0520278 0.203516
7397 1 0.417937 0.0353376 0.202685
6916 2 0.388321 0.0073852 0.209121
7276 2 0.408083 0.00829775 0.210099
7456 2 0.418133 0.0241323 0.210468
7096 2 0.3981 0.0235793 0.211165
7277 2 0.408187 0.0415094 0.211826
7396 1 0.418852 0.00242018 0.20201
7097 2 0.397207 0.0566139 0.211501
7457 2 0.417878 0.0572248 0.211393
7846 2 0.438317 0.0246523 0.18727
8027 2 0.448994 0.0410119 0.185571
8207 2 0.460164 0.0559556 0.186498
8206 2 0.457495 0.02539 0.187589
7847 2 0.439554 0.0566148 0.186391
7667 2 0.429642 0.0402885 0.186886
7576 1 0.428199 0.0186419 0.202306
7577 1 0.428172 0.0518526 0.202845