LAMMPS (19 May 2017)
variable Text equal 300.0
variable Nrun0 equal 10000
variable sigma equal 3.1
variable tau equal 1703.41 # fs
variable dt equal 0.005*${tau}
variable dt equal 0.005*1703.41
variable Tdamp equal 50.0*${dt}
variable Tdamp equal 50.0*8.51705

units real
atom_style atomic
boundary p p p
# processors 2 2 4
# processors 4 4 32
processors * * *

region simulation_space block 0.0 201.5 0.0 201.5 0.0 161.2 units box
create_box 8 simulation_space
Created orthogonal box = (0 0 0) to (201.5 201.5 161.2)
  1 by 1 by 1 MPI processor grid

read_data samples/MoS2unitcell_new.xyz add merge
  orthogonal box = (-0.5 -0.5 -0.5) to (201.5 201.5 161.2)
  1 by 1 by 1 MPI processor grid
  reading atoms ...
  60 atoms

# mass 1 18.0

neighbor 2.0 bin
neigh_modify delay 0 every 1 check yes


variable cutoff equal 2.5*${sigma}
variable cutoff equal 2.5*3.1
pair_style lj/cut ${cutoff}
pair_style lj/cut 7.75
pair_modify tail yes
pair_coeff * * 0.596151 ${sigma}
pair_coeff * * 0.596151 3.1


thermo_style custom step temp ke etotal press
thermo_modify flush yes
thermo 10

min_style cg
minimize 1.0e-8 1.0e-8 1000 1000
Neighbor list info ...
  update every 1 steps, delay 0 steps, check yes
  max neighbors/atom: 2000, page size: 100000
  master list distance cutoff = 9.75
  ghost atom cutoff = 9.75
  binsize = 4.875, bins = 42 42 34
  1 neighbor lists, perpetual/occasional/extra = 1 0 0
  (1) pair lj/cut, perpetual
      attributes: half, newton on
      pair build: half/bin/atomonly/newton
      stencil: half/bin/3d/newton
      bin: standard
Per MPI rank memory allocation (min/avg/max) = 4.519 | 4.519 | 4.519 Mbytes
Step Temp KinEng TotEng Press 
       0            0            0    3713.0189    182.19436 
      10            0            0   -68.485802    5.7903105 
      20            0            0   -134.86479   -0.1757937 
      30            0            0   -144.99836   -0.1706245 
      40            0            0   -149.88575 -0.048079205 
      50            0            0   -154.95261  -0.10865895 
      60            0            0   -155.92457 0.00029184278 
      70            0            0   -155.92577 -2.3548007e-05 
Loop time of 0.00346112 on 1 procs for 70 steps with 60 atoms

95.9% CPU use with 1 MPI tasks x no OpenMP threads

Minimization stats:
  Stopping criterion = energy tolerance
  Energy initial, next-to-last, final = 
         3713.01893695     -155.925766909     -155.925768222
  Force two-norm initial, final = 2951.3 0.00346001
  Force max component initial, final = 482.535 0.00086769
  Final line search alpha, max atom move = 1 0.00086769
  Iterations, force evaluations = 70 98

MPI task timing breakdown:
Section |  min time  |  avg time  |  max time  |%varavg| %total
---------------------------------------------------------------
Pair    | 0.0027142  | 0.0027142  | 0.0027142  |   0.0 | 78.42
Neigh   | 0.0002501  | 0.0002501  | 0.0002501  |   0.0 |  7.23
Comm    | 0.0001719  | 0.0001719  | 0.0001719  |   0.0 |  4.97
Output  | 9.7275e-05 | 9.7275e-05 | 9.7275e-05 |   0.0 |  2.81
Modify  | 0          | 0          | 0          |   0.0 |  0.00
Other   |            | 0.0002277  |            |       |  6.58

Nlocal:    60 ave 60 max 60 min
Histogram: 1 0 0 0 0 0 0 0 0 0
Nghost:    260 ave 260 max 260 min
Histogram: 1 0 0 0 0 0 0 0 0 0
Neighs:    1083 ave 1083 max 1083 min
Histogram: 1 0 0 0 0 0 0 0 0 0

Total # of neighbors = 1083
Ave neighs/atom = 18.05
Neighbor list builds = 4
Dangerous builds = 0
reset_timestep 0
dump 1 all atom 10 relax.lammpstrj

velocity all create ${Text} 8782734 mom yes rot yes dist gaussian
velocity all create 300 8782734 mom yes rot yes dist gaussian

fix nvt all nvt temp ${Text} ${Text} ${Tdamp}
fix nvt all nvt temp 300 ${Text} ${Tdamp}
fix nvt all nvt temp 300 300 ${Tdamp}
fix nvt all nvt temp 300 300 425.8525
timestep ${dt}
timestep 8.51705
run ${Nrun0}
run 10000
Per MPI rank memory allocation (min/avg/max) = 4.397 | 4.397 | 4.397 Mbytes
Step Temp KinEng TotEng Press 
       0          300    52.760338   -103.16543   0.36551035 
      10    142.24471    25.016262   -102.66647     1.817517 
      20    179.24127    31.522766   -101.24968   0.84118163 
      30    166.56033    29.292598   -98.763706   0.25964205 
      40    165.02829     29.02316   -95.915316  -0.22169528 
      50    150.74646    26.511448   -93.488994  -0.41168933 
      60    143.21196    25.186372   -91.503483  -0.44338651 
      70    137.09024    24.109758   -89.599679  -0.36220124 
      80    149.53976    26.299228   -87.419896  -0.36097154 
      90    141.60923    24.904503   -84.954613 -0.095752034 
     100    151.73679    26.685615   -82.227922  0.054649869 
     110    165.14343    29.043411   -79.301495  0.082545326 
     120    177.86817    31.281283    -76.18216  0.031004719 
     130    182.67367    32.126416   -72.915151   0.11550181 
     140    207.22961    36.445013   -69.294211 -0.011360765 
     150    216.39178    38.056345   -65.593062  -0.13660012 
     160    228.16973    40.127708   -61.870446  -0.23394395 
     170    216.91047    38.147565   -58.189198   0.01307139 
     180    226.17933    39.777659   -54.543733  0.043450897 
     190    261.43395    45.977813   -50.515218  -0.16488238 
     200    263.49246    46.339838   -46.696009  0.012979755 
     210    274.64539    48.301279   -42.951881   0.12130067 
     220    290.80447    51.143141   -39.274749   0.18491407 
     230    304.19412    53.497948   -35.714683   0.16644185 
     240     305.5163    53.730477   -32.308088   0.19276641 
     250    311.86891    54.847697   -29.415695   0.21602391 
     260    299.33921    52.644127   -26.875997   0.37146291 
     270    322.58814    56.732864   -24.398072  0.071633159 
     280    318.54157    56.021203    -22.14041  0.012797615 
     290    304.46802    53.546119   -20.300597  0.084767005 
     300    308.38538    54.235056   -18.467432  0.063871428 
     310    309.48698    54.428792    -16.84768   0.10482109 
     320    306.76169    53.949502   -15.392987   0.12404317 
     330    291.22372    51.216872   -14.064291   0.21958859 
     340    294.79592    51.845109   -12.553345   0.11846829 
     350    295.29151    51.932266   -11.003855  0.044254576 
     360    295.87857    52.035511   -9.3637418 -0.011490214 
     370    303.98109    53.460483   -7.6157357  -0.10616046 
     380    296.70876    52.181515    -5.957405 -0.0011969355 
     390    299.44147    52.662111   -4.2517294  0.066408953 
     400    310.68198    54.638954   -2.5371415  0.036406554 
     410    313.47163    55.129563  -0.94082358  0.092399788 
     420     300.6316    52.871416   0.51869831   0.27002375 
     430    305.75872    53.773111    1.9547488   0.18493137 
     440    310.06529    54.530499    3.3794382   0.13041821 
     450    315.89994    55.556625    4.6505534  0.094840686 
     460    317.02639    55.754731    5.6836645  0.096147585 
     470     307.1499    54.017776    6.6104531    0.2136948 
     480    300.62521    52.870293    7.3879961    0.2535494 
     490    302.17233    53.142381    8.1148569   0.10405184 
     500    298.52039    52.500123    8.9212871  0.027427868 
     510    301.03493    52.942349    9.8291106  0.017736987 
     520    285.76543    50.256935    10.730374   0.19495278 
     530    308.44435    54.245427    11.823853 0.0025261729 
     540      310.997    54.694356     13.02269  0.057746376 
     550    313.18815    55.079709    14.034528    0.1794447 
     560    325.21741    57.195268    14.922165   0.17926163 
     570    332.29977    58.440826    15.612351   0.15648773 
     580    326.16499    57.361917    15.814033   0.22323883 
     590    324.57457    57.082213    15.632874   0.19373587 
     600    301.71895    53.062646    15.027743   0.30288533 
     610    315.62164    55.507682    14.173266  0.055306777 
     620    304.83591    53.610818     12.97031  0.092514823 
     630    280.07608    49.256361    11.592937   0.34601543 
     640    279.78502    49.205174    10.249298   0.26143023 
     650    271.10792    47.679151    8.9438097   0.16804025 
     660    254.17562    44.701306    7.9811705   0.18490256 
     670    265.62203    46.714361    7.2474567  0.013121511 
     680    252.02059    44.322305    6.9261156    0.1707331 
     690    258.36588    45.438236    7.1037083    0.2113237 
     700    266.82432    46.925804    7.9818478   0.18894801 
     710    281.33297    49.477409    9.6621456   0.12637226 
     720    288.93619    50.814571    12.080317   0.19085542 
     730    297.90441    52.391791    15.104645   0.26715639 
     740    322.34237    56.689641    18.396169   0.16733568 
     750    329.13012    57.883387    21.313961   0.20575572 
     760     338.6527    59.558102    23.446029   0.22000714 
     770    345.95561     60.84245    24.682439   0.22323752 
     780    344.50634     60.58757    25.126134   0.26807558 
     790    342.29578    60.198803    24.834432   0.25885738 
     800    336.76476    59.226076    23.919756   0.24439648 
     810    317.72195    55.877058    22.639338   0.31576098 
     820    312.20526     54.90685    21.110531   0.21639478 
     830    300.04218    52.767756    19.559937   0.18030299 
     840    295.44977    51.960099     18.11267   0.10829192 
     850    289.38616    50.893706    16.833377   0.11078678 
     860    276.59629     48.64438    15.878702   0.23309123 
     870    279.19968    49.102231     15.33295   0.19153726 
     880    290.20237     51.03725    15.059493  0.078938956 
     890    283.18523    49.803161    14.876208   0.20663784 
     900    292.39238    51.422402    14.874111   0.28651798 
     910    293.91734    51.690593    15.066051   0.41399709 
     920    297.29195    52.284079    15.366091   0.35303639 
     930    296.70835    52.181442    15.732608   0.24175022 
     940    292.98273    51.526227    16.156315   0.19252041 
     950    288.97416    50.821247    16.873645   0.17946177 
     960    300.59642    52.865228    18.323442   0.12352186 
     970    297.55033     52.32952     21.11882   0.32740212 
     980    335.19109    58.949317    25.827294   0.24528056 
     990    362.72024    63.790809    31.183081   0.25636874 
    1000    378.14602    66.503706    35.069651   0.28316004 
    1010    390.13081    68.611444    37.138002   0.25572722 
    1020    382.63034    67.292353    37.420283    0.3414116 
    1030    384.82811    67.678871     36.22285   0.29115195 
    1040    364.03475    64.021987    33.647059   0.41941101 
    1050    355.42202    62.507287     30.27141   0.34260021 
    1060    326.14268    57.357993    26.696547   0.32124119 
    1070    309.07857    54.356966    23.621504   0.19101605 
    1080    295.13889    51.905425    21.203762   0.13166248 
    1090    280.62765    49.353366    19.463453   0.16259542 
    1100     273.1381    48.036195    18.342322   0.17830093 
    1110    261.49991    45.989411    17.715124   0.22337361 
    1120    259.44243    45.627568    17.583327   0.14430647 
    1130    253.27865    44.543558    17.966433   0.12994027 
    1140     251.5197    44.234214    18.864724     0.141737 
    1150    262.23024    46.117854    20.369523  0.090710223 
    1160    274.69541    48.310076    22.479977  0.088117181 
    1170    288.69842    50.772754    24.903316   0.14696426 
    1180    306.23124    53.856212    27.400775   0.21672204 
    1190    316.74554    55.705339    29.550124   0.34464651 
    1200    333.22642    58.603796     31.14197    0.3849049 
    1210    341.88551    60.126649    32.001182   0.42041338 
    1220    340.19198    59.828812    32.181232   0.45139657 
    1230     342.8192    60.290856    31.673482   0.33502949 
    1240    334.37335    58.805503    30.621413   0.26566854 
    1250    324.99006    57.155285    29.199733   0.21207897 
    1260    309.37421    54.408959    27.593885   0.23941531 
    1270    300.04822    52.768819    26.064713   0.24747409 
    1280    303.20265    53.323581    24.692176   0.19771614 
    1290    296.06445    52.068201    23.487826   0.27259053 
    1300    293.28893    51.580076    22.583814   0.29820214 
    1310    288.08892    50.665562    21.876713   0.28990615 
    1320    292.03823    51.360119    21.457886   0.21957834 
    1330    281.76161    49.552792    21.213866   0.31736446 
    1340    291.95974    51.346316     21.20809   0.24171316 
    1350    292.57145    51.453894    21.262353   0.27882778 
    1360    288.37936    50.716642    21.439723   0.31646671 
    1370    293.84868    51.678519    21.703472   0.18713466 
    1380    291.00315    51.178081    21.980359   0.16939173 
    1390    281.32159    49.475407    22.349317   0.26460983 
    1400    287.77425    50.610222     22.79167   0.22860897 
    1410    295.71547    52.006826    23.271107    0.2120605 
    1420    288.30018    50.702717    23.746536   0.36578759 
    1430    300.46261    52.841697    24.208085   0.33029863 
    1440    296.69444    52.178997    24.697392   0.36965461 
    1450    306.65199    53.930208    25.107148   0.19650492 
    1460    302.63138    53.223113    25.439928    0.1772995 
    1470    295.32859    51.938787     25.68936   0.23356336 
    1480    297.82514     52.37785    25.952523   0.19032818 
    1490    299.52586    52.676952    26.273162   0.17909197 
    1500    302.77162    53.247776    26.575953   0.21274876 
    1510    303.54762     53.38425    26.879251   0.30200735 
    1520    294.92247    51.867363    27.171423   0.44399555 
    1530    310.62996    54.629805    27.580346   0.29344353 
    1540    317.36076    55.813537    28.003917   0.22137088 
    1550    313.44298    55.124525    28.350599    0.3032657 
    1560    322.36846     56.69423    28.629042   0.25960625 
    1570    323.35873    56.868387     28.67865   0.28213943 
    1580     322.1586    56.657323    28.289549   0.32102476 
    1590    323.60707    56.912061    27.394631   0.30541907 
    1600    300.82926    52.906178    26.000481   0.44804322 
    1610    303.03959    53.294904    24.363378   0.28859493 
    1620    285.90026    50.280647     22.59608   0.28602843 
    1630    278.22033    48.929996    21.004514    0.2164812 
    1640    266.00818    46.782271    19.696679   0.22505175 
    1650    257.65816    45.313772     18.85127    0.2211757 
    1660    257.53723    45.292504    18.481508   0.16044951 
    1670    259.59704    45.654758    18.664042   0.15305762 
    1680    261.13033    45.924414    19.340969   0.20214057 
    1690    268.26369    47.178943    20.594914   0.20361547 
    1700    283.46856    49.852991     22.45292   0.16787687 
    1710    290.18028    51.033365    24.759475   0.28695836 
    1720    314.28803    55.273142    27.220848   0.26050614 
    1730    318.30264    55.979183    29.560725   0.39064825 
    1740    332.19328    58.422099    31.440409   0.38284342 
    1750    334.33148     58.79814    32.742307   0.43259426 
    1760    341.54419    60.066623    33.409363   0.37155232 
    1770    336.77665    59.228166    33.405466    0.3377945 
    1780    333.79433    58.703672    32.853305   0.22062447 
    1790    327.42203     57.58299    31.739904   0.14704977 
    1800    318.88427    56.081474    30.216455   0.15831632 
    1810    313.84965    55.196045     28.30807   0.21396448 
    1820    298.18654    52.441408    26.164239   0.41336699 
    1830    291.81346    51.320589    24.011513   0.39246041 
    1840    281.59428    49.523364    22.024472    0.2782088 
    1850    271.28886    47.710973    20.289542    0.1657758 
    1860    258.92417    45.536422    19.017432   0.12270025 
    1870    251.64921    44.256991    18.316855   0.11275234 
    1880    252.83273    44.465133    18.146754   0.12061052 
    1890     254.6335    44.781832    18.603534   0.20911046 
    1900    262.91192     46.23774    19.682503   0.25535273 
    1910    279.44771    49.145852    21.714909   0.27742229 
    1920    298.89863    52.566642     25.21987   0.39535543 
    1930    336.77744    59.228304    30.846876   0.40658238 
    1940    358.68476    63.081097    36.929248   0.49179656 
    1950    389.36603    68.476944      40.8451   0.32126645 
    1960    387.60618    68.167444    41.915611   0.32715839 
    1970    380.25954    66.875406    41.288032   0.34496965 
    1980     368.0317    64.724922    39.682114   0.38649528 
    1990    356.71783    62.735178    37.415099   0.37510652 
    2000    347.17669    61.057198    34.697753   0.30384242 
    2010    319.49169    56.188298    31.824618   0.38316682 
    2020    308.72999    54.295662    29.234801   0.28523964 
    2030    293.11387    51.549289    26.926544   0.24559517 
    2040    283.31429     49.82586     25.12539   0.20140632 
    2050    278.95699    49.059551    23.724441    0.1696644 
    2060     268.6659    47.249678    22.751648   0.25373512 
    2070    266.16302    46.809503    22.199169   0.26732359 
    2080    269.29439     47.36021    22.042573   0.22167204 
    2090    277.34209    48.775541    22.306314   0.15554385 
    2100    275.01181    48.365721     22.92958   0.25459433 
    2110    289.00112    50.825989    23.905223   0.23325177 
    2120    301.53915    53.031024     25.23111   0.23288486 
    2130    303.26588    53.334701    26.714993   0.37270542 
    2140    315.57039    55.498668    28.320861   0.41771357 
    2150      330.409    58.108302    29.919695   0.33625164 
    2160    337.27112    59.315128    31.318531   0.28357373 
    2170    334.60848    58.846854    32.286262   0.33883538 
    2180    330.60853    58.143393    32.822787   0.40468051 
    2190    331.83769    58.359561    32.962827   0.37315675 
    2200    334.02454    58.744159    32.521167   0.28016411 
    2210     324.7315    57.109812    31.346218   0.24920327 
    2220    314.83833    55.369923    29.324287   0.21585786 
    2230    298.37209    52.474042    26.560906   0.25426564 
    2240    287.02181    50.477892    23.397248   0.25317984 
    2250    276.68108    48.659291    20.442677   0.24103571 
    2260    262.04073    46.084525    18.115331    0.2926947 
    2270    258.75425    45.506538    16.571563   0.23674668 
    2280    256.95317    45.189786     15.69512   0.19152585 
    2290    254.52012    44.761891    15.439389   0.23495565 
    2300    250.65386    44.081941     15.74511   0.31654461 
    2310    253.20213      44.5301    16.584521   0.31510477 
    2320     257.0035    45.198639    17.966456   0.25188877 
    2330     263.0186      46.2565    19.840844   0.18407709 
    2340    271.17895    47.691643    22.009829   0.17786276 
    2350    279.41529    49.140151    24.262438   0.20640476 
    2360    291.69126    51.299098    26.301462   0.19139699 
    2370    298.73489    52.537846     27.91103   0.23015247 
    2380    307.19344    54.025433    29.044704   0.25554536 
    2390    307.80654    54.133257    29.764853   0.35620293 
    2400    308.60232    54.273209    30.214736   0.38683439 
    2410    315.28986    55.449332     30.38615   0.33167707 
    2420    311.76938    54.830193    30.376025   0.37094022 
    2430    313.21008    55.083566     30.17808   0.34578883 
    2440    310.63638    54.630934    29.823863   0.30270573 
    2450    303.72016    53.414595    29.314209    0.2884164 
    2460    293.55639    51.627115     28.77972   0.31503946 
    2470     292.4396    51.430708    28.284156   0.23124134 
    2480    285.42683    50.197386    27.855337   0.21865107 
    2490     284.9872     50.12007    27.595796   0.19626422 
    2500    284.68239    50.066464    27.478256   0.21313939 
    2510    287.25725    50.519299    27.546149   0.23173237 
    2520    295.97896    52.053167    27.855332   0.22113258 
    2530    292.66871       51.471    28.392769   0.34003552 
    2540    302.95305    53.279685    29.254647   0.29683154 
    2550    303.73248    53.416761    30.501489   0.32485802 
    2560    317.66969    55.867867    32.045014   0.24703207 
    2570    319.38606    56.169722    33.763126   0.31306628 
    2580    327.76644    57.643561    35.468015   0.30501167 
    2590    335.47369    58.999018    37.055192   0.27622383 
    2600     336.4509    59.170878    38.219023   0.31438576 
    2610    341.86487     60.12302    38.939052   0.29750662 
    2620    340.40626    59.866498    39.040388    0.3097049 
    2630    328.11023    57.704023    38.493426   0.36575397 
    2640    329.95415    58.028307    37.306299   0.24965218 
    2650    319.92315    56.264179    35.504875   0.22382067 
    2660     310.1593    54.547032    33.173351   0.21997515 
    2670    295.61129    51.988505    30.616185   0.28155526 
    2680    287.41519    50.547075    28.118808   0.28183406 
    2690    278.20026    48.926466     25.97506   0.30847359 
    2700     268.7255    47.260161    24.336808   0.33578667 
    2710    260.02628    45.730248     23.25844   0.33024358 
    2720    258.35509    45.436339    22.772009    0.2569263 
    2730    252.13707     44.34279    22.811699   0.26472366 
    2740    255.33009     44.90434     23.38847   0.23053893 
    2750    263.77706    46.389889     24.49792   0.20161857 
    2760    269.51048    47.398214    26.099704     0.253614 
    2770    283.62814    49.881056    28.102179   0.26453976 
    2780    290.39306    51.070786    30.267142   0.34925526 
    2790    307.20081    54.026729     32.27847   0.30956525 
    2800    317.39535    55.819621    33.879713   0.28728605 
    2810    322.45051     56.70866    34.841871   0.28268385 
    2820    326.33524    57.391858    35.219237   0.27580333 
    2830    324.41976    57.054988    35.119726     0.325891 
    2840    327.42586    57.583663    34.725895   0.32061699 
    2850    326.22616    57.372674     34.09625   0.33354402 
    2860    322.44289     56.70732    33.242158   0.36336627 
    2870    318.80727    56.067932      32.1957   0.36514461 
    2880    311.19893    54.729869    31.031248    0.3485288 
    2890    300.26977    52.807782    29.830095   0.31979297 
    2900    296.29405    52.108581    28.731205   0.25516262 
    2910    289.55663    50.923685    27.723497   0.24481504 
    2920    285.41368    50.195073    26.879446   0.24591822 
    2930    279.87557    49.221099    26.217427   0.29081214 
    2940    278.68181    49.011155    25.824736     0.289802 
    2950    276.39065    48.608214    25.681754   0.29333982 
    2960    281.33404    49.477596    25.793251   0.28278293 
    2970    284.83284    50.092923    26.236396   0.29435742 
    2980    285.72431    50.249704    27.119648    0.3451262 
    2990    291.66529    51.294532    28.528009   0.36957571 
    3000    306.60227    53.921464    30.692098   0.31219517 
    3010    323.82526    56.950434    33.574215   0.29316054 
    3020    334.76856    58.875009    36.810916     0.393898 
    3030    349.98594    61.551254    39.806217   0.40396348 
    3040    362.73798    63.793928    42.165762   0.37169985 
    3050    358.25012    63.004659    43.482163    0.4275475 
    3060    360.92903    63.475792    43.777922   0.32751586 
    3070    352.38372    61.972947    43.079392   0.30151649 
    3080    339.72913    59.747412    41.426665   0.29351047 
    3090    324.89638    57.138809    39.054056   0.27142128 
    3100    310.63974    54.631525    36.222105   0.23104224 
    3110     293.8458    51.678013    33.345252   0.25331661 
    3120    280.34347    49.303387    30.924996   0.29486467 
    3130    279.62071    49.176278    29.162644   0.26278807 
    3140    278.31503    48.946651    28.050645   0.30949789 
    3150    269.64019    47.421024    27.464805   0.46182716 
    3160    270.88088    47.639222    27.388012    0.4332453 
    3170    276.45019    48.618685    27.672373   0.30380337 
    3180    277.51835     48.80654    28.157503   0.26161839 
    3190    277.92337    48.877769    28.755718   0.27697955 
    3200    277.92271    48.877654    29.520135   0.26898454 
    3210     288.6774    50.769058    30.447384   0.14782678 
    3220    287.74086     50.60435    31.403724   0.22605883 
    3230    296.60788    52.163773    32.414356   0.26037297 
    3240    304.34802    53.525014    33.401777   0.30854578 
    3250    311.35441    54.757213    34.299713   0.34420416 
    3260    319.96781    56.272033     35.01136   0.32028251 
    3270    323.46203    56.886554     35.45067   0.31641375 
    3280     323.7674    56.940259    35.529504    0.3060619 
    3290    325.33829    57.216528    35.236115   0.27003929 
    3300    319.17939    56.133375    34.526391   0.31703559 
    3310    310.96521    54.688765    33.322206   0.36293098 
    3320    300.18633    52.793107    31.600894   0.36172404 
    3330    288.81665    50.793547    29.308401   0.27445306 
    3340    276.20613    48.575763    26.490003     0.211508 
    3350    254.18684    44.703279    23.520763   0.29488282 
    3360    243.48903    42.821878    20.976958    0.3020508 
    3370    232.31255    40.856296    19.211918   0.28451559 
    3380    231.64762    40.739355     18.26359   0.17456436 
    3390    227.26412    39.968439    18.092421   0.16495418 
    3400    231.02932    40.630617    18.692878   0.15586608 
    3410    241.85321     42.53419    20.089157   0.15285794 
    3420    253.99466     44.66948    22.214734   0.23747157 
    3430     261.6897     46.02279    24.764798   0.38227394 
    3440    284.12706      49.9688     27.32086   0.31433259 
    3450    295.59682     51.98596    29.336438   0.27925868 
    3460    297.74038    52.362943    30.609527   0.27656091 
    3470    302.58666    53.215249    31.410845   0.24780176 
    3480    302.17045     53.14205    31.949899   0.28320853 
    3490    303.62873    53.398514    32.363398   0.30346159 
    3500    306.49676    53.902909    32.661724   0.30985185 
    3510    314.05384    55.231955    32.810052   0.26624545 
    3520    307.54901    54.087965    32.832297   0.36901171 
    3530    307.45635    54.071669    32.694207   0.36100587 
    3540    311.41991    54.768733    32.454398   0.25435655 
    3550    295.19522    51.915332    32.060514   0.36068323 
    3560    297.32279    52.289502    31.657621   0.33464421 
    3570     301.4623    53.017509    31.215778   0.27354207 
    3580    295.67202    51.999186    30.701723   0.31579249 
    3590    294.25101    51.749276    30.168356   0.29818528 
    3600    290.03479    51.007779    29.592385   0.29833377 
    3610    287.42841    50.549401    28.997457   0.29697689 
    3620    280.13911    49.267447    28.495305   0.34584678 
    3630    280.43672    49.319787     28.17908   0.29100996 
    3640    278.09815    48.908508     28.05348   0.23393463 
    3650    277.54888    48.811908    28.224384   0.21312533 
    3660    275.27318    48.411686    28.741145    0.2752229 
    3670    281.01223    49.421001    29.778244   0.29747329 
    3680    294.30786    51.759275    31.403081   0.26537159 
    3690    303.94041    53.453329    33.488414   0.30546721 
    3700    315.27285     55.44634    35.804601   0.35285519 
    3710    323.07609    56.818679    38.115328   0.38646159 
    3720    333.31404    58.619204    40.162767   0.33708375 
    3730    342.55488    60.244371     41.76013   0.27803358 
    3740    347.88841    61.182366    42.703126   0.26072617 
    3750     349.4237    61.452375    42.891848   0.29094857 
    3760    348.64295    61.315066    42.271863   0.34646118 
    3770    342.62132    60.256055    40.725595    0.4078716 
    3780    328.80621    57.826422    38.333023   0.43168482 
    3790    324.29937    57.033814    35.201596   0.28866114 
    3800    298.92355    52.571025    31.859606   0.29956592 
    3810     285.3185    50.178334    28.982098   0.19965032 
    3820      270.899    47.642409    26.974122   0.19921237 
    3830    263.97271    46.424298    25.839667   0.22961586 
    3840    261.47166    45.984444    25.433786   0.27800818 
    3850    266.94848     46.94764    25.537737   0.27155952 
    3860    277.11437    48.735492    25.982955   0.25428087 
    3870    280.81331    49.386018    26.611783   0.36369268 
    3880    280.07831    49.256754    27.372443   0.50644353 
    3890    287.91621    50.635188    28.288061   0.46298341 
    3900     301.0128    52.938457    29.286153   0.31453779 
    3910    305.13058    53.662642    30.230956   0.28854411 
    3920    296.07588    52.070212    31.052044   0.41553371 
    3930     306.4821    53.900331    31.862134   0.35395353 
    3940    311.07573    54.708202    32.583421   0.33194988 
    3950    310.37361    54.584722    33.187364   0.34473275 
    3960    309.25873    54.388651     33.67662   0.31856396 
    3970    309.77716    54.479825    34.102991   0.25219726 
    3980    306.57556    53.916768    34.459988   0.25287544 
    3990    303.86058     53.43929    34.828236   0.28263674 
    4000    303.86298    53.439711    35.230137   0.29496991 
    4010    305.27139    53.687405    35.804059    0.3068224 
    4020    311.50117    54.783023    36.583622   0.30311768 
    4030    318.56692    56.025661    37.542446   0.32582248 
    4040    323.98673    56.978831    38.523091   0.37999573 
    4050    332.19713    58.422776    39.353425   0.35193923 
    4060    335.91571    59.076755    39.815282   0.31728378 
    4070    329.34426    57.921048    39.763979   0.36460316 
    4080    328.20013    57.719833    39.223156    0.2958614 
    4090    320.02337    56.281803    38.175606   0.27647986 
    4100    308.55887    54.265567    36.731845   0.31513507 
    4110    299.11469     52.60464    35.091493   0.32969438 
    4120      295.557    51.978957    33.377075   0.28276549 
    4130    281.02238    49.422787    31.696108   0.34342106 
    4140    277.18774    48.748397    30.251601   0.27858263 
    4150    267.56021    47.055224    29.121506   0.26485188 
    4160    264.48612     46.51459    28.368679   0.22404626 
    4170    261.07994    45.915553    28.033313   0.24207165 
    4180     260.6703     45.84351    28.159453   0.27552336 
    4190    266.13628      46.8048    28.820515   0.28586568 
    4200    275.69789    48.486379    30.086138   0.28631404 
    4210    292.99468    51.528328    32.038755   0.26521845 
    4220    307.18248    54.023505    34.538193   0.33616634 
    4230      323.334    56.864038    37.314028   0.41742929 
    4240    330.20162     58.07183    39.962119   0.52109459 
    4250    349.43291    61.453994    42.184201   0.41458351 
    4260    354.10268    62.275257    43.611668   0.39708606 
    4270    352.56876    62.005489    44.110311   0.35732139 
    4280    348.09633    61.218933    43.734428   0.27893004 
    4290    336.83812    59.238976     42.58793   0.26686952 
    4300    327.49958    57.596628    40.776523   0.26093307 
    4310    311.53657     54.78925    38.441965   0.32346701 
    4320    307.03137    53.996929      35.7285   0.26884215 
    4330    292.59398    51.457857    32.847069   0.33760451 
    4340    277.08451    48.730242    30.250211   0.42605999 
    4350    266.08382    46.795575     28.33322   0.42027576 
    4360    263.44599    46.331665    27.226374   0.30025267 
    4370    262.83986    46.225067    26.850351   0.20814824 
    4380    259.68163    45.669634    26.974358   0.23318681 
    4390    256.81781    45.165982    27.424519   0.29852162 
    4400    263.69921    46.376197    28.114977   0.25420676 
    4410    269.12233    47.329951    29.022682     0.230761 
    4420    276.30052    48.592363    30.140756   0.24758443 
    4430    284.38295    50.013802    31.431541   0.28570795 
    4440    295.98575    52.054361    32.852851   0.27821709 
    4450    302.22504     53.15165    34.273518   0.32984946 
    4460    312.40521    54.942015     35.65451    0.3492967 
    4470    322.29347    56.681042      36.8705   0.36144992 
    4480    323.10553    56.823857    37.772091   0.42267122 
    4490    335.08056    58.929878    38.343121   0.33051568 
    4500    331.74438    58.343152    38.431123   0.35454494 
    4510    329.42327    57.934943    37.963154   0.33807894 
    4520    323.40689    56.876856     36.97608   0.30679902 
    4530    320.07977    56.291722    35.486868   0.24082757 
    4540    306.90632    53.974937    33.487626   0.30738999 
    4550    293.06983    51.541544    31.187089   0.37422736 
    4560    284.22785    49.986525    28.813836   0.31180211 
    4570    271.17074    47.690199     26.63512   0.25070661 
    4580    259.59205    45.653881     24.89961   0.22118149 
    4590    249.73577    43.920479    23.717078   0.24599364 
    4600    245.16955    43.117428    23.170538     0.272121 
    4610    249.40919    43.863043    23.260452   0.25040212 
    4620    253.57504    44.595683    23.992982   0.27943943 
    4630     253.0284    44.499546    25.428921   0.37745118 
    4640     272.5897    47.939749     27.76633   0.29702614 
    4650     289.0628    50.836837    31.027391   0.28482191 
    4660    307.64025    54.104012    34.711014   0.29790059 
    4670    324.92361    57.143598    37.878754   0.31355737 
    4680    339.31096    59.673869    39.839493   0.29824338 
    4690     345.6402     60.78698    40.570962   0.31507126 
    4700    335.52269    59.007634    40.467156   0.44185506 
    4710    334.60873    58.846899    39.897306   0.42508927 
    4720    334.99954     58.91563    38.995886   0.35433065 
    4730    327.17067    57.538783    37.739017   0.33983075 
    4740    320.99737      56.4531    36.227514   0.30695631 
    4750    308.75827    54.300636    34.583933   0.33630463 
    4760    297.30025    52.285539    32.958103   0.33953158 
    4770    288.70225    50.773427    31.491708   0.28470082 
    4780    280.46941    49.325537    30.246629   0.24371982 
    4790    269.02158    47.312232    29.315781   0.28968768 
    4800    268.36494     47.19675    28.770937   0.27492591 
    4810    263.43432    46.329612     28.64199    0.3144379 
    4820    270.21338    47.521831    28.924396   0.23988911 
    4830     271.3265    47.717593    29.700224   0.25369257 
    4840    282.01083    49.596623    31.000412   0.22152463 
    4850    290.32062    51.058046    32.845029   0.28393996 
    4860    297.81614    52.376267    35.169935   0.37202428 
    4870    317.17426    55.780737    37.944748   0.32261939 
    4880    332.12492    58.410077    40.764957   0.33397595 
    4890    343.41962    60.396451    43.100217   0.37708021 
    4900    356.20056    62.644206    44.708803   0.37020928 
    4910    363.64829    63.954022    45.354783   0.37443435 
    4920    356.04046    62.616049    44.966999    0.4553153 
    4930    349.91934    61.539541    43.675895   0.42943609 
    4940    339.00245    59.619612    41.580116   0.39135747 
    4950     328.4485    57.763513    39.006182     0.322305 
    4960    318.55428    56.023437    36.263542   0.27165412 
    4970     299.0296    52.589675    33.885553   0.37062731 
    4980    291.06651    51.189224    32.279881   0.38599954 
    4990    292.92476     51.51603    31.401634   0.30678177 
    5000    284.63701    50.058483    30.978385   0.35394234 
    5010    278.15352    48.918245    30.888456   0.38797789 
    5020    282.02474    49.599068    31.073516   0.30528245 
    5030    283.36016    49.833926    31.446365   0.26911475 
    5040    285.14181     50.14726     31.99624   0.26611658 
    5050    290.49006    51.087846    32.729958    0.2591823 
    5060    293.06069    51.539937    33.603757    0.3063091 
    5070    298.16225    52.437137    34.583498   0.31974325 
    5080    299.89615    52.742074    35.664308   0.34253667 
    5090    305.65215    53.754369    36.807894   0.32779512 
    5100    309.12774    54.365614    37.959214    0.3712808 
    5110     315.9545    55.566221    39.085288   0.36057402 
    5120      323.338    56.864741    40.102934   0.30782819 
    5130    328.61054     57.79201    40.883985   0.28149759 
    5140     327.6501      57.6231    41.339517   0.33066496 
    5150    326.89909    57.491022    41.403949   0.34314465 
    5160    328.92652    57.847581    41.010195   0.29004531 
    5170    322.97968    56.801724     40.00761    0.3144671 
    5180    320.25028    56.321709    38.268386   0.32380402 
    5190    310.15329    54.545975    35.699244   0.37157785 
    5200    294.36663    51.769609    32.610364   0.42051899 
    5210     281.3634     49.48276    29.540395   0.37022239 
    5220    276.49347    48.626296    26.916206    0.2326302 
    5230    262.80155    46.218328    24.984209   0.27832184 
    5240    246.93501    43.427915    23.880836   0.39578898 
    5250    244.92247    43.073974    23.518117   0.33670573 
    5260    248.43598    43.691888    23.791139   0.20793151 
    5270    249.08584    43.806178    24.616751   0.17504163 
    5280    253.94139    44.660111    25.958233   0.20110794 
    5290    264.06806    46.441066    27.751274   0.25074283 
    5300    274.92042    48.349648    29.816976   0.33354901 
    5310    283.79833    49.910986    31.859294   0.41229756 
    5320    296.60727    52.163666    33.663361   0.37746618 
    5330    304.32771    53.521443    35.062398   0.33915712 
    5340    307.08056    54.005581    36.013333   0.35144613 
    5350    310.85582    54.669527    36.633955   0.34852815 
    5360    315.14037    55.423042    36.981772   0.32254153 
    5370     313.5201    55.138088    37.063693   0.33484926 
    5380    308.85931    54.318405    36.947126   0.35391067 
    5390    308.94292     54.33311    36.734273   0.30634332 
    5400    304.75373    53.596367     36.39644   0.30621876 
    5410    300.08932    52.776046    36.016454   0.31218938 
    5420    301.80781    53.078273    35.601168   0.25289891 
    5430    297.94469    52.398875    35.142626    0.2730114 
    5440    295.16453    51.909934    34.665412    0.3054721 
    5450      296.444    52.134953    34.160258   0.31436926 
    5460    296.14854     52.08299    33.598398   0.33479915 
    5470    298.72282    52.535724    32.883218   0.30921236 
    5480    289.97765    50.997729    31.911265   0.36047668 
    5490     290.5307    51.094994    30.664206   0.27769053 
    5500    278.17373      48.9218    29.101878   0.32658165 
    5510    261.36614    45.965887    27.470955   0.40540459 
    5520    257.69688    45.320581    26.000656   0.29666791 
    5530    252.84192     44.46675    24.848215   0.20413444 
    5540     247.8948    43.596711    24.135725   0.18593941 
    5550    242.25478    42.604813    23.979688   0.24851777 
    5560    247.41351    43.512068    24.496975   0.25234633 
    5570    260.08827    45.741149    25.793695    0.2360437 
    5580    277.68306    48.835507    27.895423   0.27779552 
    5590    288.20887    50.686659    30.576668   0.44093542 
    5600    306.37965    53.882313    33.473659   0.44885053 
    5610    321.30303    56.506855    36.148316   0.37846009 
    5620    328.00248    57.685073    38.182671   0.34675293 
    5630     336.0788    59.105436     39.54365   0.29535573 
    5640    337.00399    59.268148    40.181332   0.32527108 
    5650    332.80457    58.529605    40.191692   0.38684928 
    5660     321.5575    56.551607    39.743756   0.42454306 
    5670    323.26204    56.851382     38.96873   0.27880879 
    5680     314.8162     55.36603    37.904133   0.23738685 
    5690    304.05563    53.473593    36.670114   0.26735252 
    5700    295.92263    52.043259    35.395171    0.2907909 
    5710    293.45997    51.610158     34.15651    0.2611394 
    5720    288.25356    50.694518    32.967572   0.27822888 
    5730    283.26164    49.816599    31.872338   0.31039234 
    5740     283.2727    49.818544    30.851459   0.30324979 
    5750    277.01171    48.717438    29.837167   0.36769507 
    5760    278.29448    48.943036    28.799233   0.35639923 
    5770     268.1775    47.163786      27.5934   0.44025692 
    5780    263.92662    46.416192     26.15026    0.3799213 
    5790     252.1238    44.340456    24.539803   0.28901738 
    5800    238.50844    41.945952    23.041077   0.22204886 
    5810    230.44054    40.527069    21.983964    0.1707162 
    5820    224.99269    39.568968    21.561336   0.17539813 
    5830    229.84266    40.421921    21.919112   0.16449145 
    5840    238.42634    41.931513    23.161789   0.21989844 
    5850    249.09727    43.808187    25.307346   0.31562408 
    5860    271.69186    47.781849    28.228906   0.28890855 
    5870    287.83872     50.62156    31.358753   0.31831124 
    5880    305.24137    53.682127    34.187681   0.31885414 
    5890     317.2005    55.785352    36.427088   0.33742697 
    5900    322.33803    56.688878    38.040591   0.38279297 
    5910    330.78333    58.174134     39.07738   0.35718033 
    5920     332.7227    58.515208    39.556301   0.36426721 
    5930    331.10957    58.231509    39.525111   0.38344299 
    5940     327.0259    57.513323    39.021269   0.37509372 
    5950     320.6468    56.391445     38.13002   0.35237525 
    5960    313.01659    55.049538    36.875234    0.3252805 
    5970    306.27536    53.863971    35.371809   0.28159078 
    5980    294.87548      51.8591    33.723019   0.29150777 
    5990    284.49074    50.032758    32.105561    0.3065205 
    6000    275.70759    48.488086    30.664423    0.3041049 
    6010    274.16923    48.217538    29.448729   0.23747075 
    6020     272.5813    47.938271    28.479518   0.23011873 
    6030    268.82391    47.277468    27.780761   0.30467462 
    6040     263.2166    46.291322    27.380086   0.40528203 
    6050    264.49628    46.516376     27.38428   0.37477765 
    6060    267.61396    47.064676    27.949346   0.28852964 
    6070    276.15526    48.566816    29.303787    0.2339833 
    6080     284.1103    49.965851    31.702127   0.30015728 
    6090    303.26809     53.33509    35.181468    0.3364096 
    6100    326.49543    57.420031    39.171847   0.33955973 
    6110    348.50278    61.290415    42.640304   0.31537343 
    6120    362.07757    63.677783    44.918485   0.33565789 
    6130    365.33394    64.250475    45.864497   0.41113876 
    6140    359.70398    63.260346    45.669199    0.4997679 
    6150    357.82522    62.929932    44.488118   0.41406094 
    6160    345.74979    60.806252      42.5214   0.32946477 
    6170    328.75837     57.81801    40.078798   0.29973908 
    6180    311.82422    54.839837    37.578442   0.30162813 
    6190    301.10542    52.954746    35.380367   0.27056327 
    6200    297.29707    52.284979    33.595746   0.22478847 
    6210    289.72263     50.95288    32.220356   0.30111455 
    6220    282.01668    49.597651    31.269419   0.39070917 
    6230    283.85112     49.92027    30.699877   0.34685352 
    6240    279.24265    49.109788    30.432979   0.37309031 
    6250    285.05648    50.132253    30.438623   0.33905791 
    6260    285.20639    50.158619    30.635778     0.361818 
    6270    284.34904    50.007837    31.037985   0.37833633 
    6280    294.21367    51.742709    31.594941   0.26482417 
    6290    290.29973    51.054374    32.250811   0.29856671 
    6300    293.97278    51.700344    33.043317    0.2838613 
    6310    298.84984    52.558062    33.988087   0.28394011 
    6320    302.13331    53.135518     35.06684   0.33014612 
    6330    310.57919    54.620877    36.326812   0.34495775 
    6340    316.19752    55.608959    37.816177    0.3933211 
    6350    326.27488    57.381243    39.681998   0.39420468 
    6360     343.3512    60.384418    42.112471    0.3415477 
    6370    355.95867    62.601666    45.083516   0.37619968 
    6380    367.31133    64.598233    48.262058   0.44518402 
    6390    386.05314    67.894314    51.097804    0.4124074 
    6400    396.22236    69.682752    52.900996   0.40748111 
    6410    393.70444    69.239931    53.133466   0.43811377 
    6420    383.88774     67.51349    51.542664    0.4017883 
    6430    365.13739    64.215906    48.171399   0.33144066 
    6440    342.28846    60.197516    43.670327   0.27686031 
    6450    318.51539    56.016598    39.304991   0.30356741 
    6460    296.65474    52.172015    36.087483   0.39406523 
    6470    288.51259    50.740072    34.058201   0.35092473 
    6480     284.2732      49.9945    32.787282   0.28370292 
    6490    276.54919    48.636097    32.015421   0.30327387 
    6500    275.91024    48.523724    31.642552   0.29300318 
    6510    276.42577    48.614389    31.604005   0.31036898 
    6520    280.85015    49.392496     31.84665   0.32209392 
    6530    286.74306    50.428869    32.373869   0.32113646 
    6540    294.49497     51.79218    33.114154   0.29032106 
    6550    292.70267    51.476973    33.997309   0.37281452 
    6560    297.25444    52.277482    35.056246   0.37987312 
    6570     312.5757    54.971999    36.319728   0.26316797 
    6580    318.94245    56.091705    37.572782   0.28645701 
    6590    317.08937    55.765807    38.722093   0.43848998 
    6600    328.79024    57.823613    39.750928   0.42213936 
    6610    338.53217    59.536906    40.526922   0.35975224 
    6620    336.03124    59.097072      40.8379   0.39848128 
    6630    333.90367    58.722901    40.571471    0.3839633 
    6640    322.76783    56.764466     39.64421    0.3872927 
    6650    313.29732    55.098908    38.015213   0.32375657 
    6660    299.23852    52.626418    35.715375   0.28053535 
    6670    280.99571    49.418096    33.068767   0.28860076 
    6680    269.04188    47.315801     30.53252   0.25877122 
    6690    260.73468    45.854833    28.410249   0.24553403 
    6700    250.97847     44.13903    26.887641   0.30080028 
    6710    250.31697    44.022694    26.016097   0.28456135 
    6720    247.82057    43.583656    25.746541    0.3081087 
    6730    245.13448     43.11126    26.092641   0.35812878 
    6740    256.59213    45.126291    27.114467   0.29078546 
    6750    267.74743    47.088149    28.832744   0.27517333 
    6760    282.92753     49.75784    31.165494   0.29514552 
    6770    294.88385    51.860572    33.870912    0.3669526 
    6780    307.81233    54.134276    36.532621   0.36808761 
    6790    320.02158    56.281488    38.750146   0.32698186 
    6800    323.95425    56.973118    40.223362   0.34310935 
    6810    326.97252    57.503935     40.96569   0.35123758 
    6820    327.37012    57.573861    41.140328   0.37276478 
    6830    323.72518    56.932833    40.937714   0.38881122 
    6840    323.11966    56.826341    40.453688   0.33388946 
    6850    315.16236    55.426909    39.785918    0.3449757 
    6860     313.2104    55.083621    39.010776    0.2951262 
    6870    307.41445    54.064301    38.188316   0.29138809 
    6880    301.48797    53.022025    37.371659   0.30831324 
    6890    295.50006    51.968944    36.591137   0.32157284 
    6900    293.37483    51.595184    35.926084   0.28460668 
    6910     292.4493    51.432414    35.349636   0.26467878 
    6920    289.38433    50.893383    34.871786   0.30880445 
    6930    291.16589    51.206703    34.493999   0.32495454 
    6940    289.69466    50.947961    34.210339   0.35753028 
    6950    291.59897    51.282867    34.025544   0.32678441 
    6960    292.07292    51.366221    33.923963     0.307593 
    6970    290.23916     51.04372    33.912191    0.3450434 
    6980    289.36785    50.890486    34.060619   0.37915985 
    6990    290.63673    51.113641    34.457556   0.37914845 
    7000    296.49411    52.143764    35.202236   0.34844091 
    7010    302.63014    53.222894    36.303426   0.35407459 
    7020     309.6222    54.452574    37.677131   0.36672595 
    7030    317.76498    55.884626    39.206076   0.34337309 
    7040     324.5567    57.079071    40.699858   0.31356404 
    7050    328.94882    57.851502     41.99426   0.31568182 
    7060    334.24447    58.782838    42.945143   0.32357747 
    7070    338.01494    59.445941    43.432947    0.3519376 
    7080    341.35299    60.032996    43.343951   0.36772152 
    7090    340.54584    59.891045    42.540533   0.40113386 
    7100    328.44128    57.762243    41.000512   0.46606621 
    7110    319.66838    56.219373    38.851389   0.38590416 
    7120    301.51305    53.026434    36.350146   0.34966947 
    7130    286.70229    50.421699    33.911189   0.29597477 
    7140    274.27859    48.236771    31.830838   0.25767881 
    7150    266.21531    46.818699    30.281185   0.23770433 
    7160    263.27481     46.30156    29.277336   0.23522444 
    7170    261.57092      46.0019     28.78329   0.28563239 
    7180    259.45434    45.629661      28.7781   0.35684125 
    7190    267.53453    47.050707    29.259642   0.31258838 
    7200    274.69667    48.310297    30.206858   0.28629943 
    7210    279.20819    49.103728    31.590658   0.32412481 
    7220    292.74521    51.484455    33.447855    0.2990786 
    7230    305.57695    53.741144    35.698667   0.29977071 
    7240    312.71944    54.997278    38.144674   0.36824463 
    7250    323.99931    56.981043    40.630506   0.38479058 
    7260    337.09245    59.283705    42.912686   0.36683101 
    7270    348.51783    61.293062    44.704015   0.35409587 
    7280    353.56323    62.180385    45.779179   0.38470343 
    7290    354.26766    62.304271     46.00732   0.39818121 
    7300     351.0637    61.740798    45.295212    0.3612367 
    7310    343.03397    60.328628    43.371493   0.30099069 
    7320    321.97244    56.624583    39.661609   0.30359276 
    7330    288.31437    50.705212    34.075369    0.3509069 
    7340    265.15214    46.631722    28.837043   0.30944588 
    7350     251.8113    44.285498     25.82791   0.28981834 
    7360    241.14529    42.409689    24.659245   0.33680808 
    7370     245.4225    43.161914    24.469473   0.25881257 
    7380    248.10503    43.633683    24.896357   0.25093447 
    7390    249.42457    43.865749    25.843831   0.32256516 
    7400    257.53786    45.292615    27.306899   0.34817732 
    7410    266.50642    46.869895    29.266527   0.36013884 
    7420    280.39045    49.311649    31.551407   0.28849075 
    7430    287.77964     50.61117    33.976858   0.29258237 
    7440    297.89038    52.389324    36.312507   0.29939215 
    7450    311.21346    54.732425    38.482118   0.28499886 
    7460    321.03639    56.459962    40.291016   0.33233665 
    7470    325.21611     57.19504    41.660356   0.41274114 
    7480    332.42193     58.46231    42.565282   0.39889157 
    7490    331.00206    58.212602     42.97402   0.41050145 
    7500    330.34796    58.097567    42.886365   0.36450412 
    7510    330.84507    58.184993    42.313124   0.30068966 
    7520    318.24968    55.969868    41.234834   0.36416866 
    7530    314.77438    55.358676    39.767243   0.27930018 
    7540    303.37254     53.35346    37.971724   0.27411518 
    7550    292.54258    51.448817    36.021732   0.31148196 
    7560    283.91842    49.932106    34.083603   0.33036887 
    7570    274.95307     48.35539     32.30121   0.34552381 
    7580    267.61661    47.065142    30.809585   0.34657894 
    7590    260.55526    45.823279     29.70414   0.33204478 
    7600    258.24518     45.41701    29.011094   0.27340343 
    7610    257.51301    45.288244    28.769991   0.23241986 
    7620    258.33156    45.432202    29.052039    0.2426182 
    7630    263.03726    46.259782    30.042273    0.2913029 
    7640     273.0584    48.022179    32.111189   0.35054158 
    7650    298.49352    52.495396    35.682326   0.34264268 
    7660    323.10735    56.824177    40.337075   0.38618219 
    7670    346.91228    61.010696    44.603857   0.40068929 
    7680    360.40873    63.384289    47.361159   0.39554969 
    7690    368.02647    64.724003    48.545147   0.35859255 
    7700    362.89429    63.821417    48.439926   0.40325615 
    7710    361.25315    63.532794    47.366055   0.38854761 
    7720    351.85214    61.879459    45.519315    0.4250386 
    7730    335.63459    59.027314      43.2021   0.47700517 
    7740    326.41106    57.405192    40.743627   0.41478168 
    7750    311.87077    54.848025     38.40797   0.37294818 
    7760    300.70388    52.884127    36.393282   0.29654203 
    7770    289.92608    50.988661    34.809573   0.26632233 
    7780    282.69412    49.716792    33.648438   0.27812524 
    7790    273.72837    48.140004    32.904781   0.34290638 
    7800    274.18494    48.220301    32.566964   0.30333467 
    7810    278.86205    49.042853    32.573416   0.22816459 
    7820    282.45321    49.674422    32.853767    0.2343343 
    7830    283.99344      49.9453    33.372194   0.33737888 
    7840    283.13177    49.793759    34.116193    0.4725056 
    7850    293.55907    51.627585    35.138707   0.41401248 
    7860    301.43654     53.01298    36.425991   0.32605639 
    7870    305.07726    53.653264     37.91134    0.3168708 
    7880    313.28659    55.097021    39.616079   0.31754275 
    7890    325.54161    57.252285    41.568618   0.31533949 
    7900    338.57451    59.544352    43.720253    0.3427281 
    7910    347.68553    61.146687     45.95806   0.40527712 
    7920    363.22935    63.880344    48.116197   0.35773674 
    7930    371.67582    65.365806    49.949301   0.36499453 
    7940    378.49372    66.564855    51.064128   0.40057639 
    7950    378.85061     66.62762    51.019581   0.45880164 
    7960     368.7924    64.858706     49.31838   0.50717187 
    7970    351.92191     61.89173    45.834452   0.48031556 
    7980    328.07875    57.698486    41.226446   0.41016237 
    7990    302.94673    53.278573    36.900944   0.32504747 
    8000    283.12466    49.792508    33.793689   0.29079047 
    8010    273.05049    48.020787    31.830216   0.26990219 
    8020    265.36815     46.66971    30.679065   0.30179485 
    8030    262.65271    46.192153    30.138142   0.31639482 
    8040    264.30631    46.482967    30.100985   0.29404688 
    8050    267.37976    47.023489    30.490134   0.27386531 
    8060    268.19416    47.166715    31.301835   0.28800869 
    8070    273.46656    48.093961    32.540331   0.28891191 
    8080    277.41409    48.788203    34.183368   0.33345927 
    8090    293.00272    51.529741    36.189557   0.28490294 
    8100    307.75035    54.123374    38.370568    0.2711872 
    8110    320.28758    56.328271    40.429144   0.31251259 
    8120    330.08515    58.051347    42.122514    0.3817654 
    8130    337.70761    59.391893    43.279705   0.40727776 
    8140    345.65957    60.790385    43.822216   0.34823174 
    8150    344.02899    60.503619    43.640298   0.35462124 
    8160    338.84948    59.592711    42.743607   0.39532463 
    8170    331.18999    58.245653    41.173411   0.42537684 
    8180    316.79867    55.714683    39.067677   0.44490504 
    8190    301.73432     53.06535    36.648513   0.39733239 
    8200    288.89925    50.808073    34.199536   0.29912943 
    8210    276.10907    48.558693    32.019569   0.24670704 
    8220    263.89842    46.411234    30.346326   0.26542544 
    8230     258.0886    45.389472    29.322969   0.27526515 
    8240    260.58799    45.829035     28.90667   0.24015288 
    8250    260.66997    45.843452     28.99349   0.27919322 
    8260    268.53845    47.227265    29.481623   0.28906192 
    8270    270.07163    47.496902    30.192743   0.35097908 
    8280    271.85152    47.809927    30.967946   0.35058453 
    8290     278.4729    48.974415    31.732304   0.30552814 
    8300    279.14754    49.093061    32.464976   0.32831595 
    8310    283.77695    49.907227     33.19318    0.3223454 
    8320    287.41309    50.546706    33.952109   0.32727254 
    8330    292.50055    51.441427    34.751812   0.32697894 
    8340    296.66994    52.174688    35.580554   0.34338236 
    8350    303.05721    53.298003    36.415892   0.33311632 
    8360    307.38992    54.059987    37.206413   0.32994711 
    8370    311.04619    54.703007    37.907372   0.34013098 
    8380    314.66837    55.340032    38.485361   0.34813993 
    8390    318.22134    55.964884    38.881359   0.33535595 
    8400    317.92796    55.913288    39.039768   0.34584278 
    8410    311.11192    54.714567    38.947676   0.39764698 
    8420    313.95833    55.215159    38.633463   0.32243374 
    8430    311.53762    54.789434    38.027042   0.30181668 
    8440    302.60873    53.219129    37.083997   0.35721856 
    8450    294.52995    51.798333     35.84946   0.36549609 
    8460    285.94551    50.288605    34.362523    0.3239034 
    8470     275.7115    48.488774    32.730571   0.28008171 
    8480    269.96083    47.477415    31.103116   0.22850437 
    8490    264.74822    46.560686    29.600268   0.24323311 
    8500    252.83228    44.465055    28.367407   0.36292061 
    8510    250.54579    44.062936     27.56048     0.340236 
    8520     248.5679    43.715089    27.250954   0.29190465 
    8530    249.61426     43.89911    27.536471   0.25991211 
    8540    255.83521    44.993174    28.560329   0.24462468 
    8550    266.24948    46.824708      30.4621   0.27460993 
    8560    282.68107    49.714496    33.270039   0.32342038 
    8570    296.43552    52.133461    36.619266   0.42254565 
    8580    314.98817    55.396275    39.839257   0.40157507 
    8590     332.3924    58.457118    42.406013   0.31829606 
    8600    338.76063    59.577085    44.015017   0.32681233 
    8610    341.69011    60.092286    44.722329   0.36462638 
    8620    343.59844    60.427899    44.686461   0.39511965 
    8630    339.48431    59.704356    44.022694   0.42636299 
    8640    335.29706    58.967953     42.83635    0.3919994 
    8650    319.53837    56.196508    41.301687   0.41611227 
    8660    311.45363    54.774662    39.647708   0.32725214 
    8670    301.75334    53.068694    38.035463   0.26786867 
    8680    293.17114    51.559361    36.580765   0.25493244 
    8690     290.0773    51.015255    35.362576   0.25748489 
    8700    288.46751    50.732145    34.387527   0.31213833 
    8710    283.26036    49.816374    33.674035   0.40086678 
    8720    283.50606    49.859585    33.219815   0.34893261 
    8730    282.16176    49.623165    33.003325    0.2974939 
    8740    277.73621    48.844855    33.032408   0.31587129 
    8750    281.03438    49.424896    33.345643   0.29089854 
    8760    286.20756    50.334692    33.952828   0.28550946 
    8770    288.63312    50.761271    34.875618   0.33972721 
    8780    300.79497    52.900148    36.252203    0.3131971 
    8790    312.28967    54.921694    38.325156   0.34216756 
    8800    327.54482    57.604585    41.457501   0.40409786 
    8810     357.9796    62.957083    45.893778   0.37132579 
    8820    387.78957    68.199695     50.78181   0.39327522 
    8830    404.19552    71.084973    54.466603   0.51978256 
    8840    404.90547    71.209832    56.089311   0.62178333 
    8850    411.39195    72.350595    55.633264   0.45560081 
    8860    396.97469    69.815063    53.183645   0.36024795 
    8870    370.74438    65.201995    49.394258   0.35398323 
    8880    350.60342    61.659849    45.381652   0.33233773 
    8890    331.80915    58.354543    42.066133   0.37477934 
    8900    319.46224    56.183118    39.733535   0.41145846 
    8910    317.09825    55.767369    38.035156   0.36417793 
    8920     306.3499     53.87708    36.663772   0.39298143 
    8930    298.60516    52.515031    35.528478   0.36754682 
    8940    293.38596    51.597141    34.583055   0.31963936 
    8950    283.38434    49.838178    33.820992   0.33295236 
    8960    286.02728    50.302986    33.278086   0.23172948 
    8970    281.81424    49.562048    32.931805    0.2503549 
    8980    277.39674    48.785153    32.829806   0.30972946 
    8990    282.05197    49.603857    33.002211   0.28962958 
    9000    285.46266    50.203687    33.457864   0.31578049 
    9010    291.67055    51.295457    34.184005    0.3553657 
    9020    296.83709    52.204083    35.153846   0.40027898 
    9030    305.72373    53.766957    36.333124   0.36577058 
    9040    307.83212    54.137756    37.646999   0.36579512 
    9050    315.89502    55.555759    39.060154   0.30589054 
    9060    321.76045      56.5873    40.499032    0.3015303 
    9070    327.43099    57.584565    41.856833   0.34896184 
    9080    335.35331    58.977846     43.03533   0.38997274 
    9090    344.37523    60.564512    43.878652    0.3941901 
    9100    345.30208    60.727515    44.157837   0.41656361 
    9110    340.57621    59.896386    43.689573   0.42191814 
    9120    335.00952    58.917385    42.323079   0.36323956 
    9130    318.56767    56.025792    40.000898   0.35190124 
    9140    303.43264    53.364028    36.969502   0.30293017 
    9150    283.91453    49.931422    33.758844   0.31033198 
    9160    269.45164    47.387865     31.05204   0.29897077 
    9170    258.24013    45.416122    29.105247   0.28692322 
    9180    252.78963    44.457554    27.955448   0.27694241 
    9190    247.92957    43.602827    27.500967   0.30360666 
    9200    248.78466    43.753208    27.669862   0.27756195 
    9210    253.69708    44.617146    28.410673    0.2253948 
    9220    261.01608    45.904322    29.664389   0.21560619 
    9230    272.21251    47.873414    31.345538    0.2495695 
    9240     283.2595    49.816224    33.310946   0.34166495 
    9250    298.64196    52.521503    35.307502   0.39620762 
    9260    305.12496    53.661653    37.053725   0.44824208 
    9270    318.56976    56.026161    38.389972   0.33393325 
    9280    324.50851    57.070595    39.209816   0.27338543 
    9290    324.24839    57.024848    39.510887   0.31192715 
    9300    318.80656    56.067805     39.43262   0.39310835 
    9310    316.08999     55.59005    39.114772   0.39188099 
    9320    309.29993    54.395896    38.659488   0.40126734 
    9330    305.81098    53.782303    38.162243   0.36610549 
    9340    304.48421    53.548966    37.665409   0.30611221 
    9350    305.01108    53.641625    37.179827   0.26110311 
    9360    305.73382    53.768731     36.66194   0.28838632 
    9370    295.00293    51.881514    36.135005   0.45259455 
    9380    298.91036    52.568706     35.67519   0.37620812 
    9390    294.68579     51.82574    35.271493   0.30900403 
    9400    290.23194     51.04245    34.937726   0.26949779 
    9410    287.40601    50.545461    34.723035   0.25683091 
    9420    286.78139    50.435611    34.661987   0.27462099 
    9430    289.40439    50.896912     34.78473   0.29472819 
    9440    295.08823    51.896516    35.131664   0.31024088 
    9450    299.73499    52.713731    35.784322   0.37183645 
    9460    300.97407    52.931646    36.904037   0.47389105 
    9470    311.94683    54.861401    38.664264   0.44535986 
    9480     326.3326    57.391394    40.987304   0.35359878 
    9490    337.50542    59.356334     43.48648   0.31093755 
    9500    345.82178    60.818913    45.696178   0.33391732 
    9510    355.27692    62.481767    47.305221    0.3503216 
    9520    360.09496    63.329106    48.088441   0.38714124 
    9530     361.8637     63.64017    47.876054   0.40728756 
    9540    355.67955    62.552578    46.566046   0.42985111 
    9550    340.62643    59.905218     44.28608   0.43804468 
    9560    328.32384    57.741589    41.328872   0.34957496 
    9570    307.94965    54.158426    38.204521   0.34588821 
    9580    293.34372    51.589712    35.458609   0.31794898 
    9590    279.93825    49.232122    33.363694   0.30309814 
    9600    271.83379    47.806808    31.939255   0.27728611 
    9610    266.90093    46.939278    31.115197   0.27315951 
    9620    271.19812    47.695016    30.778738   0.23752207 
    9630    271.28341    47.710014    30.831816   0.29759523 
    9640    273.07645    48.025352    31.233915   0.36969664 
    9650    275.92734    48.526733    31.977936   0.41390492 
    9660    283.98838    49.944409    33.059544   0.38276896 
    9670    288.60232    50.755853    34.411325   0.37290428 
    9680    299.75537    52.717315    36.009029   0.31897354 
    9690    304.41452     53.53671    37.734157    0.3554901 
    9700    313.67619     55.16554    39.489484   0.32271482 
    9710    320.77991    56.414855    41.192431   0.29854365 
    9720    328.50051    57.772659     42.73536   0.29934672 
    9730    335.97782    59.087678    44.001859   0.32869079 
    9740    342.02414    60.151031     44.89859   0.37587162 
    9750    339.38136     59.68625    45.313187   0.45781292 
    9760    339.37953     59.68593    45.120399   0.40675315 
    9770    333.84605    58.712769    43.982107   0.32065633 
    9780    319.63048    56.212707     41.48471   0.27245805 
    9790    297.12878    52.255382    37.835321   0.27272445 
    9800    277.06548    48.726894    34.048039   0.25912912 
    9810    260.61497     45.83378    31.057961    0.2791146 
    9820    251.93493     44.30724     29.09141   0.29899241 
    9830     248.7938    43.754816    27.998128   0.30742618 
    9840    250.38171    44.034078    27.590693   0.29759702 
    9850    251.68308    44.262948    27.791412   0.31081931 
    9860    259.27853    45.598743    28.551133   0.28496152 
    9870    261.86585    46.053769    29.850086   0.32921112 
    9880    272.47479     47.91954    31.659526   0.30225295 
    9890    286.35387    50.360422    33.893504   0.26777896 
    9900    299.74108    52.714803    36.270496   0.29602704 
    9910    308.22566    54.206967    38.501844   0.39594529 
    9920    319.39876    56.171954    40.373875   0.40027193 
    9930    332.53826     58.48277    41.776698   0.30120971 
    9940    334.24261    58.782511    42.554116   0.32381864 
    9950    332.42985    58.463703    42.742925   0.38219444 
    9960    333.19065    58.597504    42.411076   0.37977141 
    9970     330.6067    58.143071    41.605712   0.37890594 
    9980    321.86092    56.604969    40.378953    0.4093521 
    9990    313.99572    55.221735    38.876035   0.37375214 
   10000    306.88258    53.970763    37.209322   0.29223804 
Loop time of 0.183213 on 1 procs for 10000 steps with 60 atoms

Performance: 40164.898 ns/day, 0.001 hours/ns, 54581.281 timesteps/s
90.1% CPU use with 1 MPI tasks x no OpenMP threads

MPI task timing breakdown:
Section |  min time  |  avg time  |  max time  |%varavg| %total
---------------------------------------------------------------
Pair    | 0.030113   | 0.030113   | 0.030113   |   0.0 | 16.44
Neigh   | 0.042783   | 0.042783   | 0.042783   |   0.0 | 23.35
Comm    | 0.00984    | 0.00984    | 0.00984    |   0.0 |  5.37
Output  | 0.074425   | 0.074425   | 0.074425   |   0.0 | 40.62
Modify  | 0.019875   | 0.019875   | 0.019875   |   0.0 | 10.85
Other   |            | 0.006176   |            |       |  3.37

Nlocal:    60 ave 60 max 60 min
Histogram: 1 0 0 0 0 0 0 0 0 0
Nghost:    24 ave 24 max 24 min
Histogram: 1 0 0 0 0 0 0 0 0 0
Neighs:    46 ave 46 max 46 min
Histogram: 1 0 0 0 0 0 0 0 0 0

Total # of neighbors = 46
Ave neighs/atom = 0.766667
Neighbor list builds = 831
Dangerous builds = 0
unfix nvt

fix nve all nve
run ${Nrun0}
run 10000
Per MPI rank memory allocation (min/avg/max) = 4.397 | 4.397 | 4.397 Mbytes
Step Temp KinEng TotEng Press 
   10000    306.88258    53.970763    37.209322   0.29223804 
   10010    306.57547    53.916751    37.209145   0.28317609 
   10020    300.27974    52.809535    37.199855   0.38280256 
   10030    303.19496    53.322229    37.198003   0.38075288 
   10040    305.68605    53.760331     37.19941   0.33575167 
   10050    305.43735    53.716593    37.199908   0.31906364 
   10060    306.92675     53.97853    37.199165   0.31398985 
   10070    304.23792    53.505651    37.199951   0.37135651 
   10080    303.27229    53.335829    37.200496   0.37654828 
   10090      303.769    53.423184     37.19917    0.3171504 
   10100    300.72536    52.887906    37.200299   0.30199564 
   10110    298.98981    52.582679    37.198504   0.31082094 
   10120    300.51135    52.850268    37.198911   0.31388194 
   10130    304.54688    53.559988    37.199212   0.32284735 
   10140    301.37496     53.00215    37.210573   0.39767791 
   10150    304.90018    53.622121    37.207918   0.35208516 
   10160    304.48162    53.548511    37.209996   0.31868252 
   10170    303.28887    53.338745    37.207484   0.31010247 
   10180    297.55858     52.33097    37.209969   0.34739541 
   10190    300.62867    52.870901    37.210414   0.30041128 
   10200    306.02954     53.82074    37.209346   0.26051304 
   10210    307.84264    54.139606    37.208874   0.31217276 
   10220    304.93961    53.629055    37.210606   0.41789855 
   10230    308.17349    54.197791    37.207979   0.38604384 
   10240    307.05215    54.000583    37.209817   0.35649277 
   10250     305.3313    53.697941    37.209417   0.34773583 
   10260    302.51849     53.20326    37.219482   0.36454645 
   10270    300.82619    52.905638    37.220126   0.36804051 
   10280    303.59482    53.392551    37.218726   0.30830615 
   10290    302.04385    53.119785    37.217135   0.30852052 
   10300    296.59681    52.161826    37.209994   0.33356586 
   10310    298.85384    52.558766     37.20863   0.25780881 
   10320    292.71387    51.478943    37.211526   0.29860145 
   10330    295.05593    51.890836    37.200006   0.27735248 
   10340    297.52416    52.324918    37.200153   0.27919928 
   10350    300.91402    52.921085    37.199989   0.30423514 
   10360    306.87734     53.96984    37.198385    0.3120101 
   10370    305.26857     53.68691    37.200334   0.38649655 
   10380      305.993    53.814313    37.198081   0.40325639 
   10390    306.61816     53.92426    37.199248   0.38487359 
   10400    307.45129    54.070779     37.20078   0.36518827 
   10410    308.39465    54.236686    37.197164   0.35676946 
   10420    303.21865    53.326396    37.201613   0.38449485 
   10430    309.49243    54.429751    37.198289   0.28294094 
   10440    305.06592    53.651269    37.200488    0.3186359 
   10450    302.14741    53.137999    37.200079   0.34702215 
   10460     304.4132    53.536477    37.208121   0.31717195 
   10470    304.45954    53.544627    37.210835   0.31512501 
   10480     309.3066    54.397068    37.209068   0.28301013 
   10490    310.24323    54.561792    37.207623   0.31771706 
   10500    310.11318    54.538921    37.198501   0.37668208 
   10510      307.116    54.011814    37.200955   0.44554338 
   10520    311.94362    54.860836    37.195468   0.37276776 
   10530    306.11466    53.835709    37.200583   0.36672279 
   10540    304.63118    53.574813    37.199335   0.33056651 
   10550    302.27472    53.160388    37.199554   0.30939431 
   10560    299.41926    52.658204    37.200206    0.3009649 
   10570    299.98238    52.757239     37.20854   0.28228795 
   10580    296.20043    52.092116    37.220751    0.3300826 
   10590    299.68957    52.705744    37.218771   0.31493805 
   10600    299.03933    52.591387    37.218658   0.33858811 
   10610    296.85209    52.206721    37.209421   0.37456608 
   10620    299.41534    52.657515     37.21013   0.34124675 
   10630    303.85168    53.437724    37.208549   0.28645442 
   10640    301.38305    53.003571    37.210733   0.32603304 
   10650    305.67924    53.759133    37.208698   0.28989613 
   10660    307.80102    54.132287    37.208011   0.28644406 
   10670    305.78633    53.777967    37.205615    0.3791092 
   10680     307.0628    54.002458    37.204146   0.39928995 
   10690    305.47114    53.722536    37.220593    0.3719366 
   10700    303.33266    53.346446    37.219126   0.36744598 
   10710    300.80777    52.902398    37.219524   0.36001461 
   10720    299.34326    52.644839    37.220068   0.33569061 
   10730    300.90026    52.918665    37.218896   0.29399471 
   10740    297.83267    52.379175    37.219794   0.32423102 
   10750    299.37989    52.651281    37.217983   0.31260296 
   10760    298.52592    52.501094     37.21925   0.31584334 
   10770    295.69423    52.003092    37.220201    0.3334574 
   10780    296.76229     52.19093    37.218678   0.30639101 
   10790     295.8924    52.037943    37.230253   0.30476632 
   10800    300.24633    52.803659    37.228236   0.28776997 
   10810    299.05417    52.593997    37.220937   0.35411253 
   10820    304.12877    53.486455    37.207685   0.34956942 
   10830    302.05799    53.122272    37.210596   0.39109404 
   10840    302.60614    53.218675    37.208582   0.37839103 
   10850    300.49426    52.847263    37.210497   0.37027872 
   10860     302.3863    53.180011    37.218302   0.33566456 
   10870    299.66886    52.702101     37.22148   0.35537672 
   10880    305.52778    53.732497    37.216227   0.30767883 
   10890    297.81028    52.375236    37.213863   0.37449772 
   10900    303.14311    53.313109    37.207344   0.30002414 
   10910    303.31591      53.3435    37.218834   0.28289473 
   10920    304.43803    53.540845    37.227905   0.30833976 
   10930    298.27033    52.456145    37.231453   0.41271464 
   10940    302.01967    53.115533     37.23789   0.35265353 
   10950    302.33882    53.171661    37.237396   0.29772614 
   10960    295.56495    51.980356    37.249706   0.32962816 
   10970    296.19061    52.090389    37.247795   0.30290616 
   10980    295.87835    52.035473    37.248628   0.29298216 
   10990    295.96448    52.050619    37.248889   0.29588352 
   11000     298.2362    52.450142    37.248265   0.30464438 
   11010    296.62908    52.167502    37.248138   0.37365171 
   11020    301.51059    53.026001    37.246133   0.34828256 
   11030    301.41267    53.008781    37.248146   0.35577694 
   11040    298.20274    52.444257    37.239193   0.38163644 
   11050    299.42804    52.659748    37.229177   0.32943671 
   11060    301.07601    52.949574    37.228851   0.27993631 
   11070    300.03947     52.76728    37.229132   0.29509975 
   11080    300.21555    52.798246    37.228151   0.33119595 
   11090    300.95916    52.929024    37.228683   0.36463645 
   11100    303.78947    53.426784    37.227674   0.38165496 
   11110    305.14793    53.665693    37.226913   0.38428638 
   11120    301.91667    53.097418    37.229102   0.38172817 
   11130    300.94581    52.926676    37.229088   0.34587189 
   11140    299.78249    52.722084    37.229096   0.31777958 
   11150    299.39071    52.653184    37.219968   0.30120324 
   11160    301.78783     53.07476     37.21874   0.28801874 
   11170    299.64749    52.698343    37.219172   0.34290897 
   11180    297.21092    52.269829     37.22001   0.36045655 
   11190    300.00914    52.761945    37.218136   0.30451273 
   11200    296.63696    52.168888    37.219044   0.32299289 
   11210    293.04182    51.536619    37.230059   0.34903203 
   11220    297.62363     52.34241    37.228912   0.29301256 
   11230    301.94051    53.101611    37.228884   0.26166937 
   11240    302.59492    53.216701    37.228461   0.30937015 
   11250    298.91954     52.57032    37.229535   0.40920309 
   11260    299.47933    52.668769    37.229289   0.42315329 
   11270    302.55416    53.209533    37.228121   0.36730084 
   11280    298.08131    52.422902    37.229646    0.3656129 
   11290     298.5334    52.502411    37.228033   0.30188987 
   11300    298.28621    52.458937    37.219702   0.25756328 
   11310    298.23116    52.449256    37.220001   0.26186024 
   11320    300.72977    52.888681    37.218709   0.29317899 
   11330     302.4746     53.19554    37.218182   0.35631382 
   11340    301.15351    52.963203    37.220337   0.41955216 
   11350    302.67787    53.231289    37.220551   0.39083646 
   11360    306.33151    53.873847    37.218792   0.31268516 
   11370     303.3865    53.355914    37.217689   0.33186729 
   11380    297.64813     52.34672    37.220389   0.38359545 
   11390    301.83965    53.083874    37.218663   0.31394989 
   11400    303.73831    53.417786    37.219049   0.27950551 
   11410    302.65191    53.226724    37.218675   0.30909139 
   11420    302.40685    53.183625    37.217615   0.32519039 
   11430    299.19818    52.619323    37.220353    0.3524293 
   11440    300.68809     52.88135    37.218541   0.32422966 
   11450    300.32773    52.817976    37.219304   0.32091689 
   11460    297.34005    52.292538    37.218468   0.35973305 
   11470    297.55925    52.331088    37.209023   0.36529587 
   11480    300.28106    52.809767    37.208717   0.33341856 
   11490    298.79358    52.548167    37.210096   0.32275741 
   11500    300.37407    52.826124    37.199022   0.28052829 
   11510    298.62838    52.519114    37.200328   0.29962698 
   11520    302.03496    53.118223    37.199207   0.29776128 
   11530    303.08871    53.303542    37.199104   0.33922073 
   11540    301.65854    53.052021    37.199969   0.39319382 
   11550    303.58416    53.390675    37.199188   0.36652979 
   11560    303.63771    53.400095    37.199629   0.34073566 
   11570    304.70453    53.587713    37.199216   0.30531597 
   11580    305.69646    53.762162    37.200533   0.29300064 
   11590    309.73137    54.471773    37.199587   0.29503737 
   11600    313.20587    55.082825    37.197335   0.35774067 
   11610      301.247    52.979645    37.205174   0.53744059 
   11620    309.53674    54.437543    37.195196   0.35635056 
   11630     302.6158    53.220374     37.20107   0.30444162 
   11640    299.96204    52.753662     37.21001   0.27560878 
   11650    300.76948    52.895664    37.210027   0.26586654 
   11660    303.31915    53.344069    37.219035    0.2973299 
   11670    301.14397    52.961526    37.217753   0.41253765 
   11680    298.54732    52.504859    37.219159   0.47548114 
   11690    303.60873    53.394998    37.209076   0.35073901 
   11700     304.8864    53.619698     37.20959   0.25815138 
   11710    304.81454    53.607061    37.209899   0.23951764 
   11720    304.19817     53.49866    37.209509   0.29225685 
   11730    302.33079    53.170249     37.21012   0.37508789 
   11740    304.06813    53.475791     37.19808   0.39349527 
   11750    305.98089    53.812183    37.197688    0.3616326 
   11760    309.51951    54.434514    37.197852   0.30104253 
   11770    305.88446    53.795225    37.202491   0.33928485 
   11780    308.71365    54.292789    37.198421   0.32923692 
   11790    306.24552    53.858724     37.20041   0.35364012 
   11800    308.33072    54.225443    37.198234   0.30360967 
   11810     300.6283    52.870836    37.201985   0.35263402 
   11820    302.60187    53.217923    37.197607    0.3141848 
   11830    301.32833    52.993949     37.20065   0.30518912 
   11840    303.07866    53.301775    37.208841   0.29750459 
   11850    301.44895    53.015162    37.210365   0.34648586 
   11860    305.28943    53.690579    37.208515   0.35401459 
   11870    305.60892    53.746766    37.216825   0.39817039 
   11880    301.20655    52.972532    37.219703   0.45476665 
   11890    306.26849    53.862764     37.21751   0.37900479 
   11900    304.95172    53.631185    37.219745   0.35721596 
   11910    304.46199    53.545058    37.218991   0.33796437 
   11920    300.78682    52.898714    37.219726   0.34970687 
   11930    299.23293    52.625435    37.219402   0.31838464 
   11940    298.23532    52.449988    37.228842   0.28072057 
   11950    295.49261    51.967633    37.239443   0.28346536 
   11960    295.02841    51.885996    37.238696   0.28369947 
   11970     294.1352    51.728908    37.239558   0.30169548 
   11980    298.17629    52.439606    37.238365   0.29410241 
   11990    299.55434     52.68196    37.237857   0.33731229 
   12000     297.3224    52.289434    37.249374   0.38674771 
   12010    299.16283    52.613107    37.247904   0.34481517 
   12020    296.45492    52.136872    37.248519   0.34083705 
   12030    293.07094     51.54174    37.249124   0.35373742 
   12040    292.81153    51.496117    37.248968   0.33221662 
   12050    294.82745    51.850653    37.248834    0.2915462 
[...]
   16960    304.40207    53.534521    37.170822   0.37582679 
   16970      302.353    53.174154    37.169544   0.33845907 
   16980    303.51526    53.378559    37.169042   0.26188461 
   16990    302.35947    53.175293    37.171127   0.25694482 
   17000    306.20093    53.850881    37.169916   0.26369896 
   17010    308.73696    54.296889    37.169536   0.32834098 
   17020    306.29941    53.868201    37.170156   0.44336899 
   17030    309.87046    54.496234    37.167703   0.43983513 
   17040    307.00295    53.991932    37.168743   0.43173812 
   17050    304.92918    53.627221    37.166465   0.37645605 
   17060    301.10798    52.955196    37.169596   0.32074069 
   17070    301.04083    52.943386    37.169365   0.25041225 
   17080    301.02574    52.940733    37.170462   0.22340983 
   17090    300.58229    52.862743    37.170239   0.25812485 
   17100    301.67145    53.054292    37.170262   0.29642464 
   17110    302.76569    53.246734     37.16952   0.32203669 
   17120    303.72103    53.414747    37.169199   0.33645134 
   17130    305.63684    53.751676    37.179617    0.3413267 
   17140    306.52732    53.908282    37.177912   0.37224618 
   17150    300.68933    52.881569    37.181137   0.43854939 
   17160    305.34814    53.700904    37.175298   0.33633178 
   17170    300.96725    52.930446    37.179362    0.3058892 
   17180    299.82004    52.728688    37.179264   0.28130628 
   17190    297.04287    52.240274    37.180283   0.29858728 
   17200    297.52731    52.325472    37.179642   0.29840654 
   17210    297.41462    52.305652    37.170654   0.31559721 
   17220    300.27293    52.808338    37.168424   0.31918198 
   17230     299.8732    52.738037    37.169779   0.34138359 
   17240    301.08163    52.950561    37.169339   0.31725978 
   17250    301.68799      53.0572    37.160685   0.29775386 
   17260    306.01896    53.818879    37.159854   0.27550308 
   17270    305.04909     53.64831    37.156894   0.35989538 
   17280    302.45135    53.191451    37.160421   0.43149529 
   17290     311.4067    54.766408    37.157942   0.33072389 
   17300    307.71113    54.116478    37.169002    0.3580465 
   17310     302.3718     53.17746    37.170566   0.38677826 
   17320    305.20856    53.676355     37.16914   0.31667563 
   17330    308.13953    54.191819    37.169722   0.26381656 
   17340    306.97346    53.986744    37.168604   0.30082601 
   17350     306.4018    53.886209    37.168338   0.33446734 
   17360    306.27078    53.863167    37.168545   0.33780267 
   17370     309.9838    54.516166    37.168448   0.31117365 
   17380    313.65647    55.162071    37.166806    0.3282084 
   17390     304.9926    53.638376    37.169329   0.47765177 
   17400    309.65977    54.459181    37.167047   0.39683853 
   17410     310.0683    54.531027    37.169248    0.3016783 
   17420    303.47278    53.371088    37.170316   0.32577558 
   17430    300.12572    52.782449    37.170066   0.34519242 
   17440    299.08551    52.599509    37.169965   0.33658667 
   17450     299.6715    52.702565    37.169722   0.30803504 
   17460    301.06316    52.947314    37.170373   0.28675852 
   17470    305.34988    53.701209    37.167831   0.28490493 
   17480    303.77852    53.424858    37.171166   0.36605604 
   17490    305.78909    53.778452    37.169408   0.37262128 
   17500    307.15192     54.01813    37.178307   0.33073077 
   17510    308.67101     54.28529    37.179282   0.27185665 
   17520    306.08628    53.830718    37.177537   0.29936682 
   17530    301.71314    53.061624    37.180573   0.34637982 
   17540    307.00921    53.993032    37.179225   0.27898844 
   17550    307.41466    54.064337    37.179817   0.29665224 
   17560    306.96634    53.985492    37.179707   0.36092327 
   17570    308.94312    54.333144    37.177868   0.38966719 
   17580    307.58166    54.093707    37.180455   0.40977293 
   17590    305.68388    53.759949    37.180651   0.41269985 
   17600    308.32472    54.224388    37.177775   0.34200489 
   17610    304.74091    53.594111    37.179905   0.34766776 
   17620    305.01289    53.641944    37.178445   0.32832097 
   17630    302.95291     53.27966    37.189367   0.32369841 
   17640    302.36251    53.175828    37.198506   0.29053561 
   17650    301.11913    52.957157     37.20908   0.26329639 
   17660    299.46075    52.665501     37.21905   0.27052809 
   17670    299.11537     52.60476    37.209242   0.29122261 
   17680    300.14332    52.785544    37.209317   0.31340924 
   17690     300.9279    52.923526    37.207242   0.34738853 
   17700    294.56748    51.804933    37.219443   0.43260392 
   17710    295.71504    52.006751    37.218853   0.39575885 
   17720    299.36565    52.648776    37.217965    0.3120317 
   17730    297.65067    52.347166    37.219086   0.29489639 
   17740     295.8657    52.033249    37.209057   0.30318091 
   17750    295.81994      52.0252    37.208823   0.31646983 
   17760    296.89732    52.214677    37.209175    0.3301132 
   17770    297.47335    52.315981    37.209084   0.33902838 
   17780    298.89896    52.566701    37.209527   0.31992777 
   17790    302.54266     53.20751     37.20919   0.28249689 
   17800    304.70282    53.587412    37.208671   0.30571628 
   17810    303.19935       53.323    37.208327   0.38837129 
   17820    302.39934    53.182304     37.20934   0.40983942 
   17830    303.76037    53.421667    37.209914   0.36288497 
   17840    305.76121    53.773549    37.207394   0.31575034 
   17850    306.07073    53.827983    37.199458   0.29773728 
   17860    307.70143    54.114771    37.198113   0.29272041 
   17870    302.74114    53.242415    37.200806   0.36548826 
   17880    305.29315    53.691233    37.198373   0.35361254 
   17890    307.75021     54.12335    37.198578   0.34849719 
   17900    303.75829      53.4213    37.187663   0.42438699 
   17910    303.95074    53.455145    37.206573   0.39086226 
   17920    306.97583    53.987162    37.208371   0.30467625 
   17930    305.47664    53.723502    37.209231   0.30369357 
   17940    303.50655    53.377026    37.208405   0.31961499 
   17950    300.50385    52.848949    37.209432   0.34000495 
   17960    300.53962     52.85524    37.198695   0.32593846 
   17970    300.90796    52.920018    37.189786   0.30704908 
   17980     301.3673    53.000801    37.189492    0.3078457 
   17990    301.69194    53.057895    37.189596   0.32452289 
   18000    303.57793    53.389581    37.190101   0.33927116 
   18010    304.53725    53.558294     37.18282   0.39089067 
   18020     296.6168    52.165342    37.180788   0.45844758 
   18030    304.07473    53.476952    37.198215   0.30193565 
   18040    296.69627    52.179319    37.199953    0.3220598 
   18050    295.41341    51.953704    37.200027   0.30744396 
   18060     299.4179    52.657965    37.199054   0.25655188 
   18070    299.52412    52.676647    37.197424   0.29031849 
   18080    298.85021    52.558127    37.209584   0.34001347 
   18090    306.91177    53.975896    37.198376   0.28990369 
   18100    304.09912    53.481241    37.190975   0.36635495 
   18110    304.43554    53.540406    37.189182   0.39497255 
   18120    307.25483    54.036228    37.189166   0.36486142 
   18130    308.06162    54.178118    37.190006   0.35095797 
   18140    307.62948    54.102118    37.197113   0.33497476 
   18150    289.31727    50.881589    37.218516   0.44739188 
   18160    301.94653     53.10267    37.208736   0.28939087 
   18170    299.62488    52.694366    37.209425    0.2965961 
   18180    297.48734    52.318442    37.199852   0.34587691 
   18190    297.49714    52.320166    37.208629   0.38176962 
   18200     298.5344    52.502587    37.209132   0.38394192 
   18210    299.96327    52.753878    37.219147   0.35381837 
   18220    302.35206    53.173989    37.218315   0.31687963 
   18230    300.48465    52.845572    37.218555   0.33430776 
   18240    298.11326    52.428522    37.219161   0.33589977 
   18250    298.86869    52.561378    37.218604   0.28961089 
   18260    296.37031    52.121992    37.219299   0.29397927 
   18270    295.44686    51.959587    37.229042   0.30354167 
   18280    296.12846    52.079459    37.228945   0.30956603 
   18290    297.25397    52.277399    37.228901   0.31742286 
   18300     297.8725    52.386179    37.219157   0.32977157 
   18310     297.4403    52.310169    37.219088   0.34446868 
   18320    295.95892    52.049641    37.218856   0.35351829 
   18330    295.43093    51.956785     37.21955   0.34080114 
   18340    297.93578    52.397309      37.2287   0.30475271 
   18350    299.65747    52.700098    37.219488   0.30745961 
   18360    299.48492    52.669752    37.224483   0.37337956 
   18370    294.72717    51.833016    37.227898   0.44422407 
   18380    298.40458    52.479755    37.226782   0.37579623 
   18390    297.50454    52.321466     37.22848   0.33512082 
   18400    299.26506    52.631085    37.238335   0.30036159 
   18410    299.91095    52.744677    37.237755   0.31325086 
   18420    297.65548    52.348013     37.23919   0.35985585 
   18430    300.81252    52.903234    37.237588   0.31990913 
   18440    302.57821    53.213762    37.237403   0.28926442 
   18450    297.44623    52.311212    37.238093   0.35464908 
   18460    295.82996    52.026962    37.246713   0.37283987 
   18470    295.53432    51.974969    37.246947   0.33821243 
   18480    294.15891    51.733078    37.247594   0.30552355 
   18490    293.10526    51.547774    37.247532    0.2820532 
   18500     291.1703    51.207479     37.24899   0.28921091 
   18510    293.68013    51.648876    37.247949   0.26870061 
   18520    294.83835     51.85257    37.247561   0.29150795 
   18530    294.55034    51.801919     37.23736   0.33879658 
   18540    294.70446    51.829024    37.239266   0.35174381 
   18550     300.2724    52.808244    37.237563   0.29814943 
   18560    300.30935    52.814743    37.237128   0.31979767 
   18570    294.51888    51.796385    37.238747   0.40084575 
   18580    297.09203     52.24892     37.23708   0.35985763 
   18590    299.97488     52.75592    37.237773   0.30681522 
   18600    297.83523    52.379625    37.227056   0.33023051 
   18610    295.82804    52.026625    37.227911   0.34477564 
   18620    299.47279    52.667619    37.228705   0.29334332 
   18630    301.99404    53.111025    37.227825   0.28906362 
   18640     301.0088    52.937753    37.209942   0.35271285 
   18650    303.05498    53.297611     37.20713   0.39210769 
   18660    299.04526    52.592431    37.212944   0.45080874 
   18670    307.01115    53.993374    37.206319   0.34640758 
   18680    303.24728     53.33143    37.208361   0.33305411 
   18690    297.84403    52.381172    37.209846   0.34551304 
   18700    295.11362    51.900982    37.210449   0.33284666 
   18710    298.77422    52.544763    37.208024   0.25786978 
   18720    297.09712    52.249816    37.210404   0.26701481 
   18730    299.73903    52.714442    37.208531   0.28271835 
   18740    296.94229    52.222586    37.210578   0.37908535 
   18750    304.49384     53.55066    37.206112   0.35984575 
   18760    304.08191    53.478214    37.208592   0.39210698 
   18770     297.7063     52.35695    37.221473   0.44343562 
   18780    302.02355    53.116216    37.226592   0.30588049 
   18790    298.45324    52.488312    37.229304   0.24629724 
   18800     296.2104     52.09387    37.229571   0.24672155 
   18810    298.49358    52.495406    37.228504   0.27743849 
   18820    298.08941    52.424327    37.219977   0.38783386 
   18830    299.68084    52.704208    37.216743   0.45943762 
   18840    298.77542    52.544973    37.236709    0.4644009 
   18850    299.54154     52.67971    37.238221   0.37391395 
   18860    298.85857    52.559597    37.237909    0.2814191 
   18870    292.91962    51.515127     37.23949    0.2689045 
   18880    290.88842    51.157905     37.23891   0.25482112 
   18890    289.71877    50.952201    37.238747   0.27398789 
   18900    288.20693    50.686317       37.239   0.32812873 
   18910    291.49847    51.265193    37.237525   0.34173044 
   18920    293.31459     51.58459    37.238757    0.3522474 
   18930    295.51214    51.971068    37.238939   0.33171876 
   18940    299.63656    52.696421    37.238113   0.29206017 
   18950    298.18778    52.441627    37.228325   0.34034322 
   18960    300.84383    52.908741    37.225733   0.34628385 
   18970    299.32487    52.641605    37.228493    0.3560066 
   18980    300.40051    52.830774    37.228575   0.31737403 
   18990    302.85527    53.262487    37.218969   0.26494035 
   19000     301.3939     53.00548    37.218832   0.29775946 
   19010    299.74606    52.715679    37.219992   0.35566435 
   19020    303.21681    53.326072    37.218247   0.34160162 
   19030    302.67048    53.229989    37.220002   0.34915504 
   19040    304.87268    53.617285    37.218717   0.33642678 
   19050    306.58146    53.917804    37.217245   0.34758171 
   19060    303.49176    53.374426    37.217936   0.41418522 
   19070    304.25498    53.508652    37.215377    0.4233087 
   19080    299.42491    52.659198     37.21869    0.4295638 
   19090    298.71122    52.533684    37.219117   0.33611564 
   19100     296.3904    52.125525     37.21896    0.2726448 
   19110    292.57159    51.453919     37.21959   0.27465836 
   19120    292.51815    51.444522    37.219061   0.27174177 
   19130    294.49327    51.791882    37.218982   0.26673561 
   19140    296.69994    52.179963    37.228143   0.28732959 
   19150    298.46539    52.490449    37.229112   0.33827761 
   19160    298.88593    52.564409    37.228676    0.4030483 
   19170    301.50595    53.025186    37.226764   0.38950589 
   19180    303.61921     53.39684    37.227292   0.33061874 
   19190      298.618    52.517288    37.228635   0.34775801 
   19200    295.90133    52.039514    37.228131   0.34724853 
   19210    299.12025    52.605619    37.227709   0.27629647 
   19220    299.32102    52.640927    37.229101   0.25179197 
   19230    299.77854    52.721391    37.239484   0.27225774 
   19240    303.14787    53.313947    37.226832   0.31274505 
   19250    297.15975     52.26083    37.231714   0.44807714 
   19260    303.56005    53.386436    37.225862   0.40140114 
   19270    299.00004    52.584477     37.22963   0.40917373 
   19280    301.67564    53.055029    37.226972   0.32144845 
   19290    300.43387    52.836642    37.229226   0.27552998 
   19300    300.48769    52.846108    37.228777   0.26891498 
   19310    300.65291    52.875164    37.228853   0.30622409 
   19320    299.60267     52.69046    37.227454   0.36864228 
   19330    297.79064    52.371782    37.228224   0.40566134 
   19340    299.54893     52.68101     37.23764    0.3749355 
   19350    296.18344    52.089128    37.239067    0.3840878 
   19360    295.97511    52.052489    37.237381   0.33509387 
   19370    293.83596    51.676282    37.238832   0.29401818 
   19380    291.97937    51.349768    37.248726   0.26984073 
   19390    290.62266    51.111167    37.249004   0.27249061 
   19400    291.82169    51.322036    37.248768   0.27869944 
   19410    292.81451    51.496641    37.266975   0.30810906 
   19420    290.06454     51.01301    37.268817   0.36427287 
   19430    292.43154     51.42929    37.267491   0.32984457 
   19440    292.71775    51.479625    37.267605    0.3079642 
   19450      290.274    51.049848    37.268836   0.33607771 
   19460    292.60469    51.459741    37.257948   0.33218223 
   19470    294.34764     51.76627    37.257021   0.34154526 
   19480    291.32818    51.235244     37.24954   0.38330214 
   19490    296.65135    52.171418    37.247577   0.32942202 
   19500    299.38901    52.652884    37.257325   0.32374291 
   19510    293.06875    51.541354    37.256367   0.42411211 
   19520    294.15293    51.732027    37.246654     0.394057 
   19530    299.99577    52.759594    37.247375   0.27226075 
   19540    295.61166     51.98857    37.249329   0.27414534 
   19550    294.06173    51.715988    37.248534   0.27253226 
   19560    292.50709    51.442577    37.249091   0.28780352 
   19570    293.30655    51.583176    37.248599   0.29556771 
   19580    294.10431    51.723475    37.248731   0.31886631 
   19590    294.82514    51.850246    37.239029   0.34822034 
   19600    295.85263    52.030949    37.237713   0.36309223 
   19610    295.16265    51.909603    37.238382   0.37876182 
   19620    294.10151    51.722984    37.238385   0.39037995 
   19630    293.15202    51.555999    37.219693    0.3903124 
   19640    297.54464     52.32852    37.228047   0.33756394 
   19650    297.18497    52.265264    37.238532   0.33033328 
   19660     294.2237    51.744474    37.239073   0.34527742 
   19670    292.98612    51.526822    37.238372   0.33649909 
   19680    289.87596    50.979845    37.249166   0.33757423 
   19690    289.49563    50.912958    37.248122   0.30589475 
   19700     288.6148    50.758048     37.24897   0.28144019 
   19710    288.89651    50.807591     37.24857   0.26677294 
   19720    290.22695    51.041574    37.229588   0.26579754 
   19730    293.65392    51.644266    37.238094   0.27742094 
   19740    291.93952    51.342759    37.240522    0.3574985 
   19750    297.65759    52.348384    37.236668   0.34394729 
   19760    293.68954    51.650531    37.219034   0.39909088 
   19770    291.97414    51.348847    37.218935    0.3982356 
   19780     294.7406    51.835379     37.20874    0.3309297 
   19790    294.64385    51.818364    37.209963   0.31171592 
   19800    296.89627    52.214491    37.208691   0.30849502 
   19810     293.6204    51.638372     37.20955   0.37630529 
   19820    296.73231    52.185657    37.207548   0.33953337 
   19830    298.01695    52.411583    37.209482   0.28915101 
   19840    297.61492    52.340879    37.209975   0.27817295 
   19850    299.60043    52.690067    37.219679   0.27929491 
   19860     304.2657    53.510538    37.217705   0.30470679 
   19870    301.39336    53.005385    37.209242   0.42666522 
   19880    300.93606     52.92496    37.207653   0.44994583 
   19890    299.53492    52.678545     37.21144   0.40939381 
   19900    304.57327    53.564628     37.20838   0.29073698 
   19910    300.31606    52.815923    37.210014   0.29712669 
   19920    300.64862    52.874408    37.209669   0.30080819 
   19930    303.77763    53.424701    37.209326   0.30869345 
   19940    304.44951    53.542864    37.207341   0.35739185 
   19950    302.84409    53.260521    37.209431   0.39216198 
   19960    306.19968    53.850661     37.21627   0.32528089 
   19970    301.73765    53.065935     37.22018   0.32569347 
   19980    305.28883    53.690472    37.218672   0.28151634 
   19990    303.72333    53.415151    37.217451   0.33038242 
   20000    300.43889    52.837524    37.219014   0.38566774 
Loop time of 0.154116 on 1 procs for 10000 steps with 60 atoms

Performance: 47747.955 ns/day, 0.001 hours/ns, 64886.125 timesteps/s
88.6% CPU use with 1 MPI tasks x no OpenMP threads

MPI task timing breakdown:
Section |  min time  |  avg time  |  max time  |%varavg| %total
---------------------------------------------------------------
Pair    | 0.015429   | 0.015429   | 0.015429   |   0.0 | 10.01
Neigh   | 0.042855   | 0.042855   | 0.042855   |   0.0 | 27.81
Comm    | 0.0060291  | 0.0060291  | 0.0060291  |   0.0 |  3.91
Output  | 0.073229   | 0.073229   | 0.073229   |   0.0 | 47.52
Modify  | 0.010776   | 0.010776   | 0.010776   |   0.0 |  6.99
Other   |            | 0.005798   |            |       |  3.76

Nlocal:    60 ave 60 max 60 min
Histogram: 1 0 0 0 0 0 0 0 0 0
Nghost:    12 ave 12 max 12 min
Histogram: 1 0 0 0 0 0 0 0 0 0
Neighs:    45 ave 45 max 45 min
Histogram: 1 0 0 0 0 0 0 0 0 0

Total # of neighbors = 45
Ave neighs/atom = 0.75
Neighbor list builds = 821
Dangerous builds = 0
unfix nve
undump 1

write_restart restart.equil





Total wall time: 0:00:00
