LAMMPS Description

12 atoms
0 bonds
0 angles
0 dihedrals
0 impropers

2 atom types 

0.000000  3.170000  xlo xhi
0.000000  12.288000 ylo yhi
0.000000  5.490601 zlo zhi

Masses

  1 95.94 # Mo
  2 32.065 # S

Atoms

  1 1  1.580 9.240 0.912
  2 1  0.000 9.240 3.649
  3 1  1.580 3.080 4.561
  4 1  0.000 3.080 1.824
  5 2  0.000 1.540 3.649
  6 2  1.580 1.540 0.912
  7  2  1.580 4.620  0.912
  8  2  0.000 4.620  3.649
  9  2  0.000 10.780  1.824
  10  2  1.580 10.780  4.561
  11  2  0.000 7.700  1.824
  12  2  1.580 7.700  4.561
