LAMMPS Description

12 atoms
0 bonds
0 angles
0 dihedrals
0 impropers

2 atom types 

0.000000  3.170000  xlo xhi
0.000000  5.490601  ylo yhi
0.000000  12.288000 zlo zhi

Masses

  1 95.94 # Mo
  2 32.065 # S

Atoms

1 1 0.000000  0.000000  3.072000
2 1 1.585000  2.745301  3.072000
3 2 1.585000  0.915283  4.577280
4 2 0.000000  3.660584  4.577280
5 2 1.585000  0.915283  1.566720
6 2 0.000000  3.660584  1.566720
7 1 1.585000  0.915283  9.216000
8 1 0.000000  3.660584  9.216000
9 2 0.000000  0.000000  7.710720
10  2 1.585000  2.745301  7.710720
11  2 0.000000  0.000000  10.721280
12  2 1.585000  2.745301  10.721280
